% Model:              steadyNS.mph
% Version:            COMSOL 5.6.0.341
% Date:               Mar 8 2022, 21:00
% Dimension:          2
% Nodes:              2601
% Expressions:        3
% Description:        速度场，x 分量, 速度场，y 分量, 压力
% Length unit:        null
% x                       y                        u                        v                        p
0                         0                        0                        0                        0.7051418008355086
0.02000000000001001       0                        0                        0                        0.7036354867684688
0                         0.019999999999999993     0                        0                        0.7066779294012162
0.020000000000009812      0.020000000000000195     -0.002362274855319521    0.002353816895609817     0.7051030714275022
0                         0.03999999999999999      0                        0                        0.7084973620287291
0.02000000000000961       0.040000000000000174     -0.004799109303061166    0.008734566400540579     0.7059512897426485
0.040000000000009805      0                        0                        0                        0.7019161592299932
0.04000000000000959       0.020000000000000392     -0.008364830251839444    0.004317721542725271     0.704051765985073
0                         0.05999999999999998      0                        0                        0.7071340251436127
0.020000000000009416      0.06000000000000016      -0.006256269549687939    0.01835994728065491      0.7037053264468688
0.0600000000000096        0                        0                        0                        0.7030367146744868
0.06000000000000941       0.02000000000000059      -0.01627542383206919     0.004674300470481937     0.7055503645601141
0                         0.07999999999999996      0                        0                        0.7008089708719845
0.02000000000000921       0.08000000000000015      -0.007001149653568326    0.029787411740986838     0.697059948184147
0.0800000000000094        0                        0                        0                        0.7075200047999709
0.08000000000000923       0.020000000000000795     -0.023862007270845503    0.003978643931307431     0.709769359050462
0                         0.09999999999999995      0                        0                        0.6880295554692557
0.02000000000000901       0.10000000000000013      -0.007172081905422921    0.04176979033697618      0.6845928232466656
0.10000000000000919       0                        0                        0                        0.7146495393829755
0.10000000000000904       0.020000000000000996     -0.029802620386921694    0.00280593972359804      0.7163011192388912
0                         0.11999999999999994      0                        0                        0.6660181201210666
0.020000000000008806      0.12000000000000012      -0.006536341236046669    0.05281936991520895      0.6641398113816458
0.12000000000000899       0                        0                        0                        0.7235113980401839
0.12000000000000881       0.0200000000000012       -0.033615407849426376    0.0015625071135661546    0.7244687901523508
0                         0.1399999999999999       0                        0                        0.6289864097818892
0.020000000000008608      0.14000000000000004      -0.003924412926026332    0.059791609897710235     0.6309286502607322
0.14000000000000878       0                        0                        0                        0.7332809309277334
0.14000000000000862       0.020000000000001402     -0.035374489253878996    4.7426991357233674E-4    0.7336002663573411
0                         0.1599999999999999       0                        0                        0.5284451965762098
0.02000000000000841       0.16000000000000006      0.008098988916695074     0.04406147996992715      0.575255756317866
0.16000000000000858       0                        0                        0                        0.7433186300113648
0.1600000000000084        0.0200000000000016       -0.035433467221907676    -3.674079611007677E-4    0.74312752749574
0                         0.17999999999999985      0                        0                        0.42320307915346567
0.02000000000000821       0.18000000000000002      0.13796032409020217      -0.04075200049144975     0.5304986028214677
0.18000000000000838       0                        0                        0                        0.7531767833990451
0.1800000000000082        0.020000000000001798     -0.03423545546730999     -9.52881637190145E-4     0.7526207813839695
0                         0.2                      0.5                      0                        0.5741783503489929
0.02000000000000801       0.20000000000000018      0.5045275434697897       -0.11011229440016693     0.6150549559488785
0.20000000000000817       0                        0                        0                        0.7625706451340771
0.200000000000008         0.020000000000001995     -0.0322051662167371      -0.001313077899744015    0.7617838724099764
0                         0.22                     1                        0                        0.7641046554508131
0.02000000000000781       0.22000000000000014      0.8862286488227437       -0.056254422460284656    0.7451514977412493
0.22000000000000797       0                        0                        0                        0.771340401763333
0.22000000000000774       0.020000000000002197     -0.029700165658743633    -0.0014935571741267876   0.7704331781534046
0                         0.24000000000000005      1                        0                        0.7650338252669244
0.02000000000000761       0.2400000000000002       0.996855055563356        0.00939360288481762      0.7384587421806489
0.24000000000000776       0                        0                        0                        0.7794154759666668
0.2400000000000076        0.020000000000002398     -0.02699724324514945     -0.00154057456713578     0.778471666594969
0                         0.26000000000000006      1                        0                        0.712450447180112
0.020000000000007408      0.26000000000000023      1.0001834272831134       0.019604162030876126     0.7107792133731335
0.26000000000000756       0                        0                        0                        0.7867851908681501
0.2600000000000074        0.0200000000000026       -0.024296618924456826    -0.0014947734000521512   0.7858643608152205
0                         0.28                     1                        0                        0.6896761663441843
0.020000000000007206      0.2800000000000001       0.999974414995545        0.019903314500465466     0.6893676997946867
0.28000000000000735       0                        0                        0                        0.7934763808615628
0.2800000000000072        0.020000000000002793     -0.021733550094647905    -0.0013891157795459146   0.792617819723119
0                         0.3000000000000001       1                        0                        0.6689589137976609
0.02000000000000701       0.3000000000000002       0.9995767725397117       0.020478661850357127     0.6690505854683986
0.30000000000000715       0                        0                        0                        0.7995371786472272
0.300000000000007         0.020000000000002995     -0.019391764415842727    -0.0012489166534362804   0.7987642629288866
0                         0.3200000000000001       1                        0                        0.6480009289292109
0.020000000000006807      0.3200000000000002       0.9993765491021948       0.02145786022359483      0.6481886299278348
0.32000000000000695       0                        0                        0                        0.8050258086180587
0.32000000000000683       0.0200000000000032       -0.01731607293238535     -0.0010927791580166667   0.8043499959444752
0                         0.34000000000000014      1                        0                        0.6259437982051512
0.020000000000006606      0.3400000000000002       0.9992980251358912       0.022693314632077726     0.6261558032389705
0.34000000000000674       0                        0                        0                        0.8100032155162781
0.3400000000000066        0.0200000000000034       -0.015523121670557857    -9.338065535378743E-4    0.809427408211591
0                         0.36000000000000015      1                        0                        0.602589114467998
0.02000000000000641       0.3600000000000002       0.9993112044472761       0.023987718624209304     0.6027987595431211
0.36000000000000654       0                        0                        0                        0.8145285080677573
0.3600000000000064        0.020000000000003598     -0.014010048802029483    -7.807935260299029E-4    0.814049743846567
0                         0.38000000000000017      1                        0                        0.5779666661714167
0.020000000000006207      0.3800000000000002       0.9994202751284493       0.025175004350093698     0.578145369351987
0.38000000000000633       0                        0                        0                        0.8186563916397307
0.38000000000000633       0.0200000000000038       -0.012761184070036569    -6.392737550890334E-4    0.8182679173713964
0                         0.4000000000000002       1                        0                        0.5523517411130797
0.020000000000006006      0.40000000000000024      0.9996764399914727       0.026043985704618255     0.5524439420495766
0.40000000000000613       0                        0                        0                        0.822435952663431
0.400000000000006         0.020000000000004        -0.011753068030073067    -5.123879325128233E-4    0.8221287725158618
0                         0.42000000000000026      1                        0                        0.5266373532573608
0.020000000000005805      0.42000000000000043      1.0002158469975793       0.026285634881745658     0.5263523233719225
0.4200000000000059        0                        0                        0                        0.8259103198898629
0.4200000000000058        0.020000000000004202     -0.010958097482258485    -4.0157730665702824E-4   0.8256743153982062
0                         0.4400000000000003       1                        0                        0.5029895490522475
0.020000000000005607      0.44000000000000045      1.000827624328149        0.025600819317742173     0.5014508838465596
0.4400000000000057        0                        0                        0                        0.8291168599309267
0.4400000000000056        0.0200000000000044       -0.010347081639704344    -3.0712364191275463E-4   0.8289415701733448
0                         0.4600000000000003       1                        0                        0.5088346776184519
0.020000000000005406      0.4600000000000004       0.998787835062542        0.03295736955661631      0.4828294953454447
0.4600000000000055        0                        0                        0                        0.8320876649552587
0.4600000000000054        0.0200000000000046       -0.00989095665497645     -2.2855986073359074E-4   0.8319628051645829
0                         0.4800000000000003       1                        0                        0.46246524103949466
0.020000000000005208      0.4800000000000005       0.8910284438307701       0.09198789435516193      0.4464585187286852
0.4800000000000053        0                        0                        0                        0.8348501694273114
0.4800000000000052        0.020000000000004795     -0.009561862550813078    -1.6497551907496583E-4   0.8347659506170566
0                         0.5                      0.5                      0                        0.2453301603494566
0.020000000000005007      0.5                      0.5112383440119909       0.13636386227772404      0.29184173541548303
0.5000000000000051        0                        0                        0                        0.8374277877667515
0.500000000000005         0.020000000000005003     -0.009333750145477314    -1.1523910671418789E-4   0.8373750903942101
0                         0.5199999999999999       0                        0                        0.09273618973920733
0.020000000000004806      0.5200000000000001       0.14352553210480418      0.05635793285872099      0.20515077747083663
0.5200000000000049        0                        0                        0                        0.8398405051990784
0.5200000000000048        0.0200000000000052       -0.009182648059920005    -7.815403193636186E-5    0.8398109485179421
0                         0.5399999999999998       0                        0                        0.20350015234854865
0.0200000000000046        0.5399999999999999       0.012411896160234828     -0.037934402086962755    0.2538944883947523
0.5400000000000047        0                        0                        0                        0.8421053820155177
0.5400000000000046        0.020000000000005402     -0.009086699550784208    -5.255987067340223E-5    0.8420913225923867
0                         0.5599999999999997       0                        0                        0.30736968841608936
0.020000000000004407      0.5599999999999998       2.5405118826388206E-4    -0.06159475807322672     0.31243104285635515
0.5600000000000045        0                        0                        0                        0.8442369519531422
0.5600000000000046        0.020000000000005604     -0.009026054992505802    -3.73900852780623E-5     0.8442314413911111
0                         0.5799999999999996       0                        0                        0.34711315505233004
0.020000000000004205      0.5799999999999996       -0.0020857371029476732   -0.06254327153731408     0.3482981364907028
0.5800000000000043        0                        0                        0                        0.8462475128012253
0.5800000000000042        0.0200000000000058       -0.008982689440537294    -3.16962962000169E-5     0.8462442363392482
0                         0.5999999999999995       0                        0                        0.3723968763196079
0.020000000000004008      0.5999999999999996       -0.0024137659616661907   -0.05984239041581925     0.37202853057866536
0.6000000000000041        0                        0                        0                        0.848147315836645
0.600000000000004         0.020000000000006003     -0.008940198138503977    -3.4646596021611345E-5   0.8481405292591429
0                         0.6199999999999994       0                        0                        0.38989596073825655
0.020000000000003806      0.6199999999999996       -0.0021796378746293562   -0.05646398223442482     0.38910198660266265
0.6200000000000039        0                        0                        0                        0.8499446678546965
0.620000000000004         0.020000000000006204     -0.008883612137851509    -4.5503524810635014E-5   0.8499291456809963
0                         0.6399999999999993       0                        0                        0.40302178193438537
0.020000000000003605      0.6399999999999996       -0.001861796053863696    -0.05326086866427024     0.40215406564959477
0.6400000000000037        0                        0                        0                        0.8516459639377464
0.6400000000000036        0.020000000000006405     -0.008799265696699367    -6.358726741554321E-5    0.8516169689045543
0                         0.6599999999999993       0                        0                        0.4135207556710295
0.020000000000003407      0.6599999999999993       -0.001590811033589244    -0.05041320169931775     0.4126789720880748
0.6600000000000035        0                        0                        0                        0.8532556725181345
0.6600000000000035        0.020000000000006603     -0.008674737741384369    -8.822906588611491E-5    0.8532089530175139
0                         0.6799999999999992       0                        0                        0.42235258559055866
0.020000000000003206      0.6799999999999994       -0.0014025735389283462   -0.0478767601014612      0.42154677262866713
0.6800000000000033        0                        0                        0                        0.8547762955236805
0.6800000000000033        0.020000000000006804     -0.008498881470255225    -1.1871891116464152E-4   0.8547081152250133
0                         0.6999999999999991       0                        0                        0.43007805436065255
0.020000000000003005      0.699999999999999        -0.0013030572785632506   -0.04553687054926323     0.4292852114051533
0.7000000000000031        0                        0                        0                        0.8562083266278201
0.700000000000003         0.020000000000007005     -0.008261949602851938    -1.5425070800458444E-4   0.856115528337475
0                         0.719999999999999        0                        0                        0.43703036651480165
0.020000000000002807      0.7199999999999992       -0.0012876823734781562   -0.04326097195756812     0.4362160513438523
0.7200000000000029        0                        0                        0                        0.8575502300430963
0.7200000000000027        0.020000000000007206     -0.007955817821008852    -1.9386719735870644E-4   0.8574303342669969
0                         0.7399999999999989       0                        0                        0.4434008711170478
0.020000000000002606      0.739999999999999        -0.0013476382256947016   -0.040919726372730995    0.4425290380646621
0.7400000000000027        0                        0                        0                        0.8587984614294798
0.7400000000000027        0.020000000000007404     -0.007574305652563109    -2.3640592304731274E-4   0.8586497991699747
0                         0.7599999999999988       0                        0                        0.44928541522294313
0.020000000000002405      0.7599999999999989       -0.0014714736992450573   -0.03839714450220759     0.4483236070720028
0.7600000000000025        0                        0                        0                        0.8599475518557274
0.7600000000000023        0.020000000000007605     -0.007113592579956874    -2.8044645720283706E-4   0.8597694308674483
0                         0.7799999999999987       0                        0                        0.4547112585087408
0.020000000000002204      0.7799999999999986       -0.0016449770155922158   -0.035597535119579776    0.45363419287622936
0.7800000000000022        0                        0                        0                        0.8609902760512117
0.780000000000002         0.020000000000007807     -0.006572727569902716    -3.2425796652004916E-4   0.8607831801000952
0                         0.7999999999999986       0                        0                        0.4596544450302137
0.020000000000002006      0.7999999999999988       -0.0018504406862512065   -0.032452242754633966    0.4584471584053172
0.800000000000002         0                        0                        0                        0.861917928578653
0.800000000000002         0.020000000000008008     -0.005954232527298213    -3.65745042996646E-4     0.8616837500476364
0                         0.8199999999999985       0                        0                        0.4640530312367204
0.020000000000001805      0.8199999999999986       -0.002065827616823388    -0.02892723793329418     0.46271400627354475
0.8200000000000018        0                        0                        0                        0.8627207380338311
0.8200000000000018        0.020000000000008206     -0.005264804174046518    -4.023886265064212E-4    0.8624630451278115
0                         0.8399999999999984       0                        0                        0.46781946036314254
0.020000000000001603      0.8399999999999985       -0.002264159002375091    -0.025031659820377396    0.46636376990847084
0.8400000000000016        0                        0                        0                        0.8633884637259741
0.8400000000000016        0.020000000000008407     -0.0045161237882761825   -4.3117814612271055E-4   0.8631128036090735
0                         0.8599999999999983       0                        0                        0.47085424563187833
0.020000000000001406      0.8599999999999983       -0.0024133752713864217   -0.020826797535716698    0.4693165021458849
0.8600000000000014        0                        0                        0                        0.8639112492670472
0.8600000000000014        0.020000000000008608     -0.0037257876557814013   -4.4853187860023717E-4   0.8636254848302842
0                         0.8799999999999982       0                        0                        0.47306246466736235
0.020000000000001204      0.8799999999999982       -0.0024768802758331075   -0.016434517894404862    0.471499163820213
0.8800000000000012        0                        0                        0                        0.8642808695548356
0.8800000000000012        0.02000000000000881      -0.002918364840709763    -4.5020901435599976E-4   0.863995533108438
0                         0.8999999999999981       0                        0                        0.474374329549692
0.020000000000001003      0.899999999999998        -0.0024149690329114243   -0.012043706004576311    0.47286487295954777
0.900000000000001         0                        0                        0                        0.8644926405280708
0.9000000000000008        0.020000000000009007     -0.002126550212098093    -4.3124069247541815E-4   0.8642212343843644
0                         0.919999999999998        0                        0                        0.47477178087764565
0.020000000000000805      0.9199999999999982       -0.0021875954455225573   -0.007912513364590536    0.47341675951800555
0.9200000000000008        0                        0                        0                        0.8645485617247027
0.9200000000000006        0.02000000000000921      -0.0013922211344843708   -3.859964411965763E-4    0.8643075859943498
0                         0.939999999999998        0                        0                        0.4743256538359735
0.020000000000000604      0.939999999999998        -0.0017602359224603878   -0.004362216555086641    0.4732382354828861
0.9400000000000006        0                        0                        0                        0.8644628828632143
0.9400000000000005        0.02000000000000941      -7.667397812756789E-4    -3.087954723238016E-4    0.864270823029265
0                         0.9599999999999979       0                        0                        0.4732601729070028
0.02000000000000041       0.959999999999998        -0.0011199713924221024   -0.0017476744240705118   0.47253821055319056
0.9600000000000004        0                        0                        0                        0.8642735216811903
0.9600000000000004        0.02000000000000961      -3.076905793345395E-4    -1.965013123497831E-4    0.8641464989773626
0                         0.9799999999999978       0                        0                        0.4721412986443779
0.020000000000000205      0.9799999999999978       -3.460978358943533E-4    -3.457118939332312E-4    0.4716917781558613
0.9800000000000002        0                        0                        0                        0.8640767673805348
0.9800000000000002        0.02000000000000981      -6.118684420963641E-5    -6.118002062959675E-5    0.8639978610381083
0                         1                        0                        0                        0.47169266319723235
0.020000000000000004      1                        0                        0                        0.47124360144847294
1                         0                        0                        0                        0.863997844603673
1                         0.02000000000001001      0                        0                        0.8639189287672109
0.0400000000000002        0.9799999999999979       -0.0017437734026420487   -0.0011134110677263071   0.47084116728727693
0.04000000000000001       1                        0                        0                        0.4701176385989159
0.9800000000000002        0.04000000000000961      -1.9661567219987194E-4   -3.077599345436061E-4    0.863849297239623
1                         0.040000000000009805     0                        0                        0.8637222914239404
0.060000000000000206      0.9799999999999981       -0.004353471136399399    -0.0017563678189753483   0.470114847693925
0.06000000000000001       1                        0                        0                        0.4690147296666429
0.9800000000000004        0.06000000000000942      -3.0883631469013836E-4   -7.668535843508666E-4    0.8637253667160396
1                         0.0600000000000096       0                        0                        0.8635336405983611
0.08000000000000021       0.979999999999998        -0.007931304576876621    -0.0022149031293153348   0.46986478904933926
0.08000000000000002       1                        0                        0                        0.4684730906372301
0.9800000000000002        0.0800000000000092       -3.8521801243316506E-4   -0.0013914076872796497   0.8636899649120968
1                         0.0800000000000094       0                        0                        0.8634503432844706
0.10000000000000024       0.979999999999998        -0.012178535309925676    -0.002511413901772346    0.4703010791858845
0.10000000000000003       1                        0                        0                        0.46871642301290845
0.9800000000000004        0.10000000000000901      -4.280917035209651E-4    -0.0021216024480283386   0.8637799090649462
1                         0.10000000000000919      0                        0                        0.8635121740651104
0.12000000000000018       0.9799999999999982       -0.01683067495683087     -0.0026739921490286714   0.4715518933669521
0.12000000000000002       1                        0                        0                        0.46986618184282625
0.9800000000000001        0.12000000000000881      -4.420760268245716E-4    -0.0029021198201687965   0.8640134370073206
1                         0.12000000000000899      0                        0                        0.8637360987177004
0.14000000000000018       0.9799999999999981       -0.021658994892371858    -0.002719781881957794    0.4737157393792021
0.14                      1                        0                        0                        0.47201457420922527
0.9800000000000002        0.14000000000000862      -4.3151012887643054E-4   -0.0036849959578823055   0.8643981426253836
1                         0.14000000000000878      0                        0                        0.8641275299877771
0.1600000000000002        0.9799999999999981       -0.02644924990199574     -0.0026507169393446915   0.4768876685573371
0.16000000000000003       1                        0                        0                        0.47525761074988404
0.9800000000000002        0.1600000000000084       -3.9991748427332046E-4   -0.004429000092569343    0.8649351089436575
1                         0.16000000000000858      0                        0                        0.8646854617999857
0.1800000000000002        0.9799999999999981       -0.03097471653635525     -0.0024525163028724043   0.48117085878809174
0.18000000000000002       1                        0                        0                        0.47970903662529824
0.9800000000000001        0.1800000000000082       -3.5004767585581037E-4   -0.005098418406154893    0.8656211876476121
1                         0.18000000000000838      0                        0                        0.8654049636678945
0.20000000000000018       0.9799999999999982       -0.03496680708511982     -0.0020936837482749926   0.48667780006170164
0.2                       1                        0                        0                        0.4855030758800094
0.9800000000000004        0.200000000000008        -2.840688216325252E-4    -0.005661943978481832    0.8664501429632138
1                         0.20000000000000817      0                        0                        0.8662783083428788
0.2200000000000002        0.9799999999999981       -0.03808205381490126     -0.0015227322616328794   0.4935233144976876
0.22000000000000003       1                        0                        0                        0.49278989026268927
0.9800000000000002        0.2200000000000078       -2.037794641004441E-4    -0.006091879051998829    0.8674131558822442
1                         0.22000000000000797      0                        0                        0.867295387509643
0.2400000000000002        0.9799999999999984       -0.0398608251489533      -6.617375440895579E-4    0.5018092855963819
0.24000000000000005       1                        0                        0                        0.5017252288021414
0.9800000000000003        0.24000000000000765      -1.1080125698927991E-4   -0.006363673163094617    0.8684989749933433
1                         0.24000000000000776      0                        0                        0.8684437626053079
0.26000000000000023       0.9799999999999984       -0.03966849212962873     6.070525675181057E-4     0.5115983937472759
0.26000000000000006       1                        0                        0                        0.5124541774790791