% Model:              steadyNS.mph
% Version:            COMSOL 5.6.0.341
% Date:               Mar 15 2022, 22:02
% Dimension:          2
% Nodes:              2601
% Expressions:        3
% Description:        速度场，x 分量, 速度场，y 分量, 压力
% Length unit:        null
% x                       y                        u                        v                        p
0                         0                        0                        0                        0.5007272488192959
0.02000000000001001       0                        0                        0                        0.500661980459822
0                         0.019999999999999993     0                        0                        0.5007950829814071
0.020000000000009812      0.020000000000000195     -6.630785307695329E-4    6.563246424598283E-4     0.5007240629198542
0                         0.03999999999999999      0                        0                        0.5009402539922702
0.02000000000000961       0.040000000000000174     -0.0019594556746596096   0.0030712127661153134    0.5008167449445818
0.040000000000009805      0                        0                        0                        0.5005250926503457
0.04000000000000959       0.020000000000000392     -0.002764547766955951    0.0015595607643272462    0.5006150648125836
0                         0.05999999999999998      0                        0                        0.5010254728510235
0.020000000000009416      0.06000000000000016      -0.003280210787075203    0.007697600833622041     0.5008298681270281
0.0600000000000096        0                        0                        0                        0.5004188693492959
0.06000000000000941       0.02000000000000059      -0.005964510392545516    0.001959285839873873     0.5005376300991428
0                         0.07999999999999996      0                        0                        0.5009134971900101
0.02000000000000921       0.08000000000000015      -0.004571091628735983    0.014535794910298397     0.5006497649883889
0.0800000000000094        0                        0                        0                        0.5003830032166878
0.08000000000000923       0.020000000000000795     -0.009531889669749867    0.0019884832099677932    0.5005090296201298
0                         0.09999999999999995      0                        0                        0.5004706177574628
0.02000000000000901       0.10000000000000013      -0.00584469793828836     0.02349599707608946      0.5001404312372948
0.10000000000000919       0                        0                        0                        0.5004090958425438
0.10000000000000904       0.020000000000000996     -0.012991605223840477    0.00184354489278466      0.5005285507426909
0                         0.11999999999999994      0                        0                        0.4994949690009402
0.020000000000008806      0.12000000000000012      -0.007240049454134253    0.03453261343249375      0.4991419303665319
0.12000000000000899       0                        0                        0                        0.5004851880035599
0.12000000000000881       0.0200000000000012       -0.016130320188352924    0.0016366471223031131    0.5005917214408975
0                         0.1399999999999999       0                        0                        0.49775039603142973
0.020000000000008608      0.14000000000000004      -0.008583820944639277    0.04752122869026806      0.4972631437492797
0.14000000000000878       0                        0                        0                        0.5006041256070937
0.14000000000000862       0.020000000000001402     -0.018874287245579994    0.0014121907336805911    0.5006956368544885
0                         0.1599999999999999       0                        0                        0.4921505004582983
0.02000000000000841       0.16000000000000006      -0.01084382582690188     0.05732445371703492      0.4941891243346407
0.16000000000000858       0                        0                        0                        0.5007618988209757
0.1600000000000084        0.0200000000000016       -0.021205183680397404    0.0011851654696697867    0.5008381261956601
0                         0.17999999999999985      0                        0                        0.4866096510354149
0.02000000000000821       0.18000000000000002      0.08520449453185931      0.026147556462608        0.48983545118759475
0.18000000000000838       0                        0                        0                        0.5009549936259483
0.1800000000000082        0.020000000000001798     -0.02312655694657515     9.629134066462098E-4     0.501016459311417
0                         0.2                      0.5                      0                        0.48606861294615367
0.02000000000000801       0.20000000000000018      0.49603457117652655      -0.0033751834431877373   0.48989051936535016
0.20000000000000817       0                        0                        0                        0.5011791602042737
0.200000000000008         0.020000000000001995     -0.024654925820739877    7.518102026548412E-4     0.5012268232641816
0                         0.22                     1                        0                        0.4798066219792303
0.02000000000000781       0.22000000000000014      0.9656342982714481       0.017143800243009592     0.4872801692570846
0.22000000000000797       0                        0                        0                        0.5014293416275206
0.22000000000000774       0.020000000000002197     -0.025817627630422415    5.577155119430351E-4     0.5014644734624827
0                         0.24000000000000005      1                        0                        0.45739319186786476
0.02000000000000761       0.2400000000000002       1.0046276667786729       0.03135706528434598      0.45630203440969325
0.24000000000000776       0                        0                        0                        0.5017000934741066
0.2400000000000076        0.020000000000002398     -0.026650813787965667    3.851682055904461E-4     0.5017241790171794
0                         0.26000000000000006      1                        0                        0.4262465449770029
0.020000000000007408      0.26000000000000023      0.9991256389839371       0.030033451135908523     0.4265930602709379
0.26000000000000756       0                        0                        0                        0.5019860833340144
0.2600000000000074        0.0200000000000026       -0.027196494867167444    2.3681662410325686E-4    0.5020007101176095
0                         0.28                     1                        0                        0.39580197291640784
0.020000000000007206      0.2800000000000001       0.9996440582381783       0.030972568293904535     0.3961246971058056
0.28000000000000735       0                        0                        0                        0.5022824995586946
0.2800000000000072        0.020000000000002793     -0.02749906536262547     1.1325844912439076E-4    0.5022892434317079
0                         0.3000000000000001       1                        0                        0.36436467343422646
0.02000000000000701       0.3000000000000002       0.9995212655480674       0.031911950460025956     0.3647595844586951
0.30000000000000715       0                        0                        0                        0.5025853154274418
0.300000000000007         0.020000000000002995     -0.027601876666926876    1.3193637150438664E-5    0.5025856372991389
0                         0.3200000000000001       1                        0                        0.331925443628068
0.020000000000006807      0.3200000000000002       0.9994939566680267       0.03296826824060217      0.33233723838549295
0.32000000000000695       0                        0                        0                        0.5028914047870984
0.32000000000000683       0.0200000000000032       -0.027544280235344124    -6.622243552072477E-5    0.5028865682842535
0                         0.34000000000000014      1                        0                        0.2983701372001411
0.020000000000006606      0.3400000000000002       0.9994523917943926       0.03411732759694209      0.2988146369297346
0.34000000000000674       0                        0                        0                        0.5031985282250151
0.3400000000000066        0.0200000000000034       -0.027359388438256645    -1.2892458780950435E-4   0.5031895433076168
0                         0.36000000000000015      1                        0                        0.26362173689717355
0.02000000000000641       0.3600000000000002       0.9994109529768316       0.035353326971183006     0.2640997990911939
0.36000000000000654       0                        0                        0                        0.5035052197673562
0.3600000000000064        0.020000000000003598     -0.02707265206361381     -1.7946061984848487E-4   0.5034928132571946
0                         0.38000000000000017      1                        0                        0.22759029947446696
0.020000000000006207      0.3800000000000002       0.999370787155386        0.036682282176290354     0.22810258750914153
0.38000000000000633       0                        0                        0                        0.5038106068354367
0.38000000000000633       0.0200000000000038       -0.02670124300607196     -2.2254484621752016E-4   0.5037952182322574
0                         0.4000000000000002       1                        0                        0.19017947376621192
0.020000000000006006      0.40000000000000024      0.9993105106060894       0.03810753811877532      0.19073108723481735
0.40000000000000613       0                        0                        0                        0.5041141936752964
0.400000000000006         0.020000000000004        -0.026254160520659924    -2.626728293995997E-4    0.5040959931130574
0                         0.42000000000000026      1                        0                        0.15130201363056342
0.020000000000005805      0.42000000000000043      0.9993481512045901       0.03962424636239684      0.1518823050319914
0.4200000000000059        0                        0                        0                        0.5044156331829746
0.4200000000000058        0.020000000000004202     -0.025732945477690422    -3.038075315115598E-4    0.5043945577480846
0                         0.4400000000000003       1                        0                        0.11071052696099555
0.020000000000005607      0.44000000000000045      0.998803589811358        0.04122060627267257      0.11151534181914789
0.4400000000000057        0                        0                        0                        0.5047145064353642
0.4400000000000056        0.0200000000000044       -0.02513288122593323     -3.491330941890799E-4    0.5046903110007552
0                         0.4600000000000003       1                        0                        0.06835863725174524
0.020000000000005406      0.4600000000000004       1.000959704695974        0.04198538987010309      0.06926953915160104
0.4600000000000055        0                        0                        0                        0.5050101250348917
0.4600000000000054        0.0200000000000046       -0.02444456955522826     -4.00867150970552E-4     0.5049824439066408
0                         0.4800000000000003       1                        0                        0.015462361104196328
0.020000000000005208      0.4800000000000005       0.9712666652246782       0.04999712037516466      0.025706554858404614
0.4800000000000053        0                        0                        0                        0.505301369172254
0.4800000000000052        0.020000000000004795     -0.02365578230187376     -4.601251932031807E-4    0.5052697848762395
0                         0.5                      0.5                      0                        -0.020481487518293214
0.020000000000005007      0.5                      0.5215451095016933       0.04653463030008288      -0.015576785975937634
0.5000000000000051        0                        0                        0                        0.5055865736349038
0.500000000000005         0.020000000000005003     -0.022753493090525618    -5.268375293150156E-4    0.5055506889862826
0                         0.5199999999999999       0                        0                        -0.024722503223057444
0.020000000000004806      0.5200000000000001       0.09506494169265134      -0.014911824021868969    -0.020283810845806816
0.5200000000000049        0                        0                        0                        0.5058634737282856
0.5200000000000048        0.0200000000000052       -0.02172598603258249     -5.997269129917974E-4    0.5058229829202878
0                         0.5399999999999998       0                        0                        -0.01690795740307521
0.0200000000000046        0.5399999999999999       -0.010547821145349735    -0.05959693810826041     -0.014632266216673379
0.5400000000000047        0                        0                        0                        0.5061292218568305
0.5400000000000046        0.020000000000005402     -0.020564921140392378    -6.763597304035488E-4    0.506083975846257
0                         0.5599999999999997       0                        0                        -0.010950006663183479
0.020000000000004407      0.5599999999999998       -0.00880587298786173     -0.0505759762609018      -0.011320344875454654
0.5600000000000045        0                        0                        0                        0.5063804821511043
0.5600000000000046        0.020000000000005604     -0.01926721622425863     -7.532837848400549E-4    0.5063305433428291
0                         0.5799999999999996       0                        0                        -0.009390175412915822
0.020000000000004205      0.5799999999999996       -0.006174756193769466    -0.038873551553879074    -0.009610678451708673
0.5800000000000043        0                        0                        0                        0.5066136042974713
0.5800000000000042        0.0200000000000058       -0.01783659029490805     -8.262606983994302E-4    0.5065592857069239
0                         0.5999999999999995       0                        0                        -0.008799957321401812
0.020000000000004008      0.5999999999999996       -0.003143078788067195    -0.03148880767672593     -0.008950018303949916
0.6000000000000041        0                        0                        0                        0.5068248687849899
0.600000000000004         0.020000000000006003     -0.01628461181246764     -8.905906712138185E-4    0.5067667534857218
0                         0.6199999999999994       0                        0                        -0.00869038433790029
0.020000000000003806      0.6199999999999996       -8.083106850475503E-4    -0.028428798054689963    -0.008721891590472172
0.6200000000000039        0                        0                        0                        0.5070107849303827
0.620000000000004         0.020000000000006204     -0.014631114120988775    -9.41513667593846E-4     0.5069497230283376
0                         0.6399999999999993       0                        0                        -0.008750426865472066
0.020000000000003605      0.6399999999999996       8.77551472392733E-4      -0.028759294204710947    -0.008684967167573913
0.6400000000000037        0                        0                        0                        0.5071684123699214
0.6400000000000036        0.020000000000006405     -0.01290388064007817     -9.746561846592435E-4    0.507105494433024
0                         0.6599999999999993       0                        0                        -0.008847408894902752
0.020000000000003407      0.6599999999999993       0.0020798702562188536    -0.031579522829764575    -0.008708714508991303
0.6600000000000035        0                        0                        0                        0.5072956683564582
0.6600000000000035        0.020000000000006603     -0.011137568134386485    -9.864782326495787E-4    0.5072321764528644
0                         0.6799999999999992       0                        0                        -0.008907553400723082
0.020000000000003206      0.6799999999999994       0.0029238560560920753    -0.036166962393697204    -0.008720173105370127
0.6800000000000033        0                        0                        0                        0.5073915799532351
0.6800000000000033        0.020000000000006804     -0.009371917643393238    -9.746650405698332E-4    0.507328919905591
0                         0.6999999999999991       0                        0                        -0.008871638652929297
0.020000000000003005      0.699999999999999        0.0034333859886510644    -0.041891944248351964    -0.008661220539246374
0.7000000000000031        0                        0                        0                        0.5074564441502429
0.700000000000003         0.020000000000007005     -0.007649393157696309    -9.384096957455875E-4    0.5073960643765124
0                         0.719999999999999        0                        0                        -0.008678146873324714
0.020000000000002807      0.7199999999999992       0.0035528848629692886    -0.04808075827138509     -0.008473931819934286
0.7200000000000029        0                        0                        0                        0.5074918699237327
0.7200000000000027        0.020000000000007206     -0.006012465326360893    -8.785450353142561E-4    0.5074351738098433
0                         0.7399999999999989       0                        0                        -0.008265658353578575
0.020000000000002606      0.739999999999999        0.0031944255111588937    -0.05393635394187676     -0.008100541478300888
0.7400000000000027        0                        0                        0                        0.5075006929160536
0.7400000000000027        0.020000000000007404     -0.004500809156511064    -7.975037523950509E-4    0.5074489525406194
0                         0.7599999999999988       0                        0                        -0.007587603707278577
0.020000000000002405      0.7599999999999989       0.0022914411670443024    -0.05854662349371869     -0.007494636538582382
0.7600000000000025        0                        0                        0                        0.5074867725427993
0.7600000000000023        0.020000000000007605     -0.003148700444525106    -6.991091172791333E-4    0.5074410514875024
0                         0.7799999999999987       0                        0                        -0.006634416673396757
0.020000000000002204      0.7799999999999986       8.500379012357114E-4     -0.0609816174056552      -0.006640353974643136
0.7800000000000022        0                        0                        0                        0.5074546992577154
0.780000000000002         0.020000000000007807     -0.001982875676444291    -5.882225624985565E-4    0.5074157912728786
0                         0.7999999999999986       0                        0                        -0.0054555782869964
0.020000000000002006      0.7999999999999988       -0.0010109234042078195   -0.06045973393396408     -0.0055737772003361255
0.800000000000002         0                        0                        0                        0.5074094532474349
0.800000000000002         0.020000000000008008     -0.0010210595605186451   -4.702984656991195E-4    0.5073778412803482
0                         0.8199999999999985       0                        0                        -0.00417009024104023
0.020000000000001805      0.8199999999999986       -0.0030428370038355877   -0.05654577398209271     -0.004395884468965824
0.8200000000000018        0                        0                        0                        0.5073560643734374
0.8200000000000018        0.020000000000008206     -2.712537757157888E-4    -3.509228405582119E-4    0.5073319003570987
0                         0.8399999999999984       0                        0                        -0.0029531067606249225
0.020000000000001603      0.8399999999999985       -0.0048878761539919114   -0.04932743070151957     -0.003263925318128198
0.8400000000000016        0                        0                        0                        0.5072993062168445
0.8400000000000016        0.020000000000008407     2.681993934279953E-4     -2.354395541795259E-4    0.507282414357816
0                         0.8599999999999983       0                        0                        -0.0019935127319080197
0.020000000000001406      0.8599999999999983       -0.006148764501883619    -0.03950806621717189     -0.0023536284900138047
0.8600000000000014        0                        0                        0                        0.5072434648245376
0.8600000000000014        0.020000000000008608     6.080492016366258E-4     -1.2860190296309348E-4   0.5072333645278034
0                         0.8799999999999982       0                        0                        -0.0014326101675858456
0.020000000000001204      0.8799999999999982       -0.006505043844067959    -0.028356196060399116    -0.0018000380517620247
0.8800000000000012        0                        0                        0                        0.5071922310391878
0.8800000000000012        0.02000000000000881      7.672321245815104E-4     -3.45839552751027E-5     0.5071881488473153
0                         0.8999999999999981       0                        0                        -0.0013102378278901676
0.020000000000001003      0.899999999999998        -0.005841791033964527    -0.01747975698405296     -0.0016431131441840597
0.900000000000001         0                        0                        0                        0.5071486701938094
0.9000000000000008        0.020000000000009007     7.720521241109962E-4     4.268633896280017E-5     0.5071495369977227
0                         0.919999999999998        0                        0                        -0.0015478343055022425
0.020000000000000805      0.9199999999999982       -0.004324797341089068    -0.00845207246257275     -0.0018102334797019679
0.9200000000000008        0                        0                        0                        0.5071152293913717
0.9200000000000006        0.02000000000000921      6.562556529915821E-4     9.899364077842874E-5     0.5071196558271419
0                         0.939999999999998        0                        0                        -0.0019791986460854375
0.020000000000000604      0.939999999999998        -0.002366410974718519    -0.0023899525400228024   -0.002148479579821349
0.9400000000000006        0                        0                        0                        0.5070937268840803
0.9400000000000005        0.02000000000000941      4.6242659924010057E-4    1.2875516791701963E-4    0.5070999565948671
0                         0.9599999999999979       0                        0                        -0.002406612544175648
0.02000000000000041       0.959999999999998        -5.079913414007604E-4    3.8012417730694345E-4    -0.002488156919916976
0.9600000000000004        0                        0                        0                        0.5070851190442233
0.9600000000000004        0.02000000000000961      2.447635875478846E-4     1.2372908461426188E-4    0.5070908300688467
0                         0.9799999999999978       0                        0                        -0.0026490558914349835
0.020000000000000205      0.9799999999999978       5.802032963556867E-4     5.864097720319185E-4     -0.002689504973948246
0.9800000000000002        0                        0                        0                        0.5070874169955435
0.9800000000000002        0.02000000000000981      7.235188227962758E-5     7.239989369227074E-5     0.5070912879278868
0                         1                        0                        0                        -0.0026866404112685575
0.020000000000000004      1                        0                        0                        -0.0027220032665518598
1                         0                        0                        0                        0.5070912829854184
1                         0.02000000000001001      0                        0                        0.5070951675346298
0.0400000000000002        0.9799999999999979       6.205498637135744E-4     -1.902165886308937E-4    -0.0029041646059346023
0.04000000000000001       1                        0                        0                        -0.0029582166456919618
0.9800000000000002        0.04000000000000961      1.2411975035456134E-4    2.452976992044152E-4     0.5070917510915336
1                         0.040000000000009805     0                        0                        0.5070976499640273
0.060000000000000206      0.9799999999999981       -0.001091906399220381    -0.0013746461990355304   -0.0032917838934390623
0.06000000000000001       1                        0                        0                        -0.0034158270918125183
0.9800000000000004        0.06000000000000942      1.340815240520019E-4     4.6868978871806796E-4    0.5070828725425297
1                         0.0600000000000096       0                        0                        0.5070898094856835
0.08000000000000021       0.979999999999998        -0.0051120675246305695   -0.0027155942048052717   -0.0038204124605219
0.08000000000000002       1                        0                        0                        -0.004040954488524989
0.9800000000000002        0.0800000000000092       1.1823477601155785E-4    6.858357886568081E-4     0.5070639336120085
1                         0.0800000000000094       0                        0                        0.5070701499200586
0.10000000000000024       0.979999999999998        -0.011869039146770906    -0.004317505506395052    -0.004493782661399549
0.10000000000000003       1                        0                        0                        -0.004831632428395141
0.9800000000000004        0.10000000000000901      8.833026089059684E-5     8.617899136439888E-4     0.5070353546734818
1                         0.10000000000000919      0                        0                        0.5070398366989455
0.12000000000000018       0.9799999999999982       -0.021986450025964818    -0.006319780029812638    -0.005327678589657851
0.12000000000000002       1                        0                        0                        -0.005807056199887886
0.9800000000000001        0.12000000000000881      5.1919334731948176E-5    9.77834257925722E-4      0.5069980890342539
1                         0.12000000000000899      0                        0                        0.5070002766395704
0.14000000000000018       0.9799999999999981       -0.036216353502645855    -0.008776566464795518    -0.006326493429908461
0.14                      1                        0                        0                        -0.006972263822091555
0.9800000000000002        0.14000000000000862      1.3361799909796395E-5    0.0010257121435260804    0.5069529923396812
1                         0.14000000000000878      0                        0                        0.5069526231802451
0.1600000000000002        0.9799999999999981       -0.05521686175912321     -0.011611747512150968    -0.00745538361731824
0.16000000000000003       1                        0                        0                        -0.008285011495062191
0.9800000000000002        0.1600000000000084       -2.519938825208664E-5    0.0010029319099003854    0.5069006321517208
1                         0.16000000000000858      0                        0                        0.5068976005132925
0.1800000000000002        0.9799999999999981       -0.07927792497713443     -0.014586043119098658    -0.008610077363353352
0.18000000000000002       1                        0                        0                        -0.009623503613417378
0.9800000000000001        0.1800000000000082       -6.311557571120089E-5    9.095329559279326E-4     0.5068412167914141
1                         0.18000000000000838      0                        0                        0.5068354762973196
0.20000000000000018       0.9799999999999982       -0.10805960890484698     -0.017340874687549555    -0.00959001908425891
0.2                       1                        0                        0                        -0.01075446105992646
0.9800000000000004        0.200000000000008        -1.00703392738085E-4     7.458892149097313E-4     0.5067745983567736
1                         0.20000000000000817      0                        0                        0.5067660996701887
0.2200000000000002        0.9799999999999981       -0.1405270518240048      -0.019485287912915223    -0.010069387674811536
0.22000000000000003       1                        0                        0                        -0.0113084615256674
0.9800000000000002        0.2200000000000078       -1.388613481309191E-4    5.112864393057648E-4     0.5067003087043757
1                         0.22000000000000797      0                        0                        0.506688963152867
0.2400000000000002        0.9799999999999984       -0.17501295675745687     -0.02065930302917487     -0.00957471040250974
0.24000000000000005       1                        0                        0                        -0.010774191197783205
0.9800000000000003        0.24000000000000765      -1.7886753172238445E-4   2.0305852609701686E-4    0.506617622606685
1                         0.24000000000000776      0                        0                        0.5066032652123517