% Model:              conv_diff.mph
% Version:            COMSOL 5.6.0.341
% Date:               Apr 6 2022, 21:04
% Dimension:          2
% Nodes:              10201
% Expressions:        1
% Description:        因变量
% Length unit:        null
% x                       y                        u
0                         0                        6
0.00999999999999912       0                        6.999999999999999
0                         0.01                     5
0.00999999999999913       0.009999999999999992     6.265338196545202
0                         0.02                     5
0.009999999999999138      0.01999999999999999      5.722822898597731
0.01999999999999913       0                        6.999999999999999
0.01999999999999914       0.009999999999999981     6.7774195915178534
0                         0.03                     5
0.00999999999999915       0.029999999999999992     5.46669709709616
0.02999999999999914       0                        6.999999999999999
0.029999999999999152      0.009999999999999974     6.916661489821041
0                         0.039999999999999994     5
0.009999999999999159      0.03999999999999999      5.322642581197641
0.03999999999999915       0                        6.999999999999999
0.039999999999999154      0.009999999999999966     6.965879342313471
0                         0.04999999999999999      5
0.009999999999999166      0.04999999999999998      5.232959534365563
0.049999999999999156      0                        6.999999999999999
0.04999999999999917       0.009999999999999957     6.98521409909364
0                         0.059999999999999984     5
0.009999999999999176      0.05999999999999998      5.1733533460530525
0.059999999999999165      0                        6.999999999999999
0.05999999999999918       0.009999999999999946     6.993338901521743
0                         0.06999999999999998      5
0.009999999999999181      0.06999999999999998      5.13189396055897
0.06999999999999917       0                        6.999999999999999
0.06999999999999917       0.00999999999999994      6.99691245430388
0                         0.07999999999999997      5
0.009999999999999192      0.07999999999999996      5.102076994962124
0.07999999999999918       0                        6.999999999999999
0.0799999999999992        0.009999999999999929     6.998537294430307
0                         0.08999999999999997      5
0.0099999999999992        0.08999999999999996      5.080078134409631
0.08999999999999919       0                        6.999999999999999
0.0899999999999992        0.009999999999999924     6.9992949779636815
0                         0.09999999999999996      5
0.00999999999999921       0.09999999999999995      5.063517049922254
0.0999999999999992        0                        6.999999999999999
0.09999999999999921       0.009999999999999912     6.999655379994651
0                         0.10999999999999996      5
0.009999999999999218      0.10999999999999996      5.050844879945683
0.10999999999999921       0                        6.999999999999999
0.10999999999999922       0.009999999999999907     6.999829577743009
0                         0.11999999999999995      5
0.009999999999999227      0.11999999999999994      5.04101733071713
0.11999999999999922       0                        6.999999999999999
0.1199999999999992        0.009999999999999894     6.9999148930565624
0                         0.12999999999999995      5
0.009999999999999235      0.12999999999999995      5.033309577387188
0.12999999999999923       0                        6.999999999999999
0.12999999999999923       0.009999999999999887     6.9999571415442094
0                         0.13999999999999996      5
0.009999999999999242      0.13999999999999996      5.027206270896978
0.13999999999999924       0                        6.999999999999999
0.13999999999999924       0.009999999999999877     6.999978260582601
0                         0.14999999999999997      5
0.009999999999999253      0.14999999999999997      5.022333498119425
0.14999999999999925       0                        6.999999999999999
0.1499999999999993        0.009999999999999867     6.99998890312845
0                         0.15999999999999998      5
0.009999999999999261      0.15999999999999998      5.018415243292095
0.15999999999999925       0                        6.999999999999999
0.1599999999999993        0.00999999999999986      6.999994304031508
0                         0.16999999999999998      5
0.00999999999999927       0.16999999999999998      5.015244709763909
0.16999999999999926       0                        6.999999999999999
0.16999999999999926       0.009999999999999848     6.99999706182643
0                         0.18                     5
0.009999999999999279      0.18                     5.012664952306414
0.17999999999999927       0                        6.999999999999999
0.1799999999999993        0.009999999999999842     6.999998477693252
0                         0.19                     5
0.009999999999999286      0.19                     5.010555509729398
0.18999999999999928       0                        6.999999999999999
0.18999999999999928       0.00999999999999983      6.999999208139967
0                         0.2                      5
0.0099999999999993        0.2                      5.0088230011587385
0.1999999999999993        0                        6.999999999999999
0.1999999999999993        0.009999999999999825     6.999999586618698
0                         0.21000000000000002      5
0.009999999999999308      0.21000000000000002      5.007394398288547
0.2099999999999993        0                        6.999999999999999
0.20999999999999927       0.009999999999999816     6.999999783495555
0                         0.22000000000000003      5
0.009999999999999315      0.22000000000000006      5.006212139540716
0.2199999999999993        0                        6.999999999999999
0.2199999999999993        0.009999999999999806     6.999999886270636
0                         0.23000000000000004      5
0.009999999999999322      0.23000000000000004      5.00523053411871
0.22999999999999932       0                        6.999999999999999
0.22999999999999932       0.009999999999999797     6.99999994009542
0                         0.24000000000000005      5
0.009999999999999332      0.24000000000000005      5.004413083486897
0.23999999999999932       0                        6.999999999999999
0.23999999999999932       0.009999999999999789     6.999999968367459
0                         0.25000000000000006      5
0.009999999999999344      0.25000000000000006      5.003730464539063
0.24999999999999933       0                        6.999999999999999
0.24999999999999933       0.00999999999999978      6.999999983257872
0                         0.26000000000000006      5
0.00999999999999935       0.26000000000000006      5.003158996078639
0.25999999999999934       0                        6.999999999999999
0.25999999999999934       0.009999999999999771     6.999999991119956
0                         0.2700000000000001       5
0.009999999999999357      0.2700000000000001       5.002679462396633
0.26999999999999935       0                        6.999999999999999
0.26999999999999935       0.009999999999999763     6.999999995280664
0                         0.2800000000000001       5
0.009999999999999367      0.2800000000000001       5.002276203468676
0.27999999999999936       0                        6.999999999999999
0.27999999999999936       0.009999999999999754     6.999999997487256
0                         0.2900000000000001       5
0.009999999999999376      0.29000000000000004      5.001936406130323
0.28999999999999937       0                        6.999999999999999
0.2899999999999994        0.009999999999999745     6.999999998659818
0                         0.3000000000000001       5
0.009999999999999384      0.30000000000000016      5.00164954808442
0.2999999999999994        0                        6.999999999999999
0.29999999999999943       0.009999999999999737     6.999999999284053
0                         0.3100000000000001       5
0.009999999999999391      0.31000000000000016      5.001406959068429
0.3099999999999994        0                        6.999999999999999
0.30999999999999933       0.009999999999999728     6.9999999996169535
0                         0.3200000000000001       5
0.009999999999999402      0.3200000000000001       5.001201472504832
0.3199999999999994        0                        6.999999999999999
0.31999999999999934       0.00999999999999972      6.99999999979477
0                         0.3300000000000001       5
0.00999999999999941       0.3300000000000001       5.001027147512513
0.3299999999999994        0                        6.999999999999999
0.3299999999999994        0.00999999999999971      6.999999999889896
0                         0.34000000000000014      5
0.009999999999999419      0.34000000000000014      5.000879045979922
0.3399999999999994        0                        6.999999999999999
0.3399999999999994        0.009999999999999702     6.999999999940854
0                         0.35000000000000014      5
0.009999999999999431      0.3500000000000001       5.000753052981539
0.3499999999999994        0                        6.999999999999999
0.34999999999999953       0.009999999999999693     6.9999999999681926
0                         0.36000000000000015      5
0.009999999999999438      0.36000000000000004      5.000645731499882
0.35999999999999943       0                        6.999999999999999
0.35999999999999954       0.009999999999999683     6.999999999982871
0                         0.37000000000000016      5
0.009999999999999447      0.37000000000000016      5.0005542044381865
0.36999999999999944       0                        6.999999999999999
0.36999999999999955       0.009999999999999674     6.999999999990767
0                         0.38000000000000017      5
0.009999999999999454      0.38000000000000017      5.000476058446295
0.37999999999999945       0                        6.999999999999999
0.37999999999999956       0.009999999999999665     6.999999999995023
0                         0.3900000000000002       5
0.009999999999999464      0.3900000000000002       5.000409265258953
0.38999999999999946       0                        6.999999999999999
0.38999999999999957       0.009999999999999657     6.999999999997311
0                         0.4000000000000002       5
0.009999999999999475      0.4000000000000002       5.0003521171518495
0.39999999999999947       0                        6.999999999999999
0.3999999999999995        0.009999999999999648     6.999999999998544
0                         0.4100000000000002       5
0.009999999999999482      0.4100000000000002       5.000303173822976
0.4099999999999995        0                        6.999999999999999
0.40999999999999953       0.00999999999999964      6.999999999999215
0                         0.4200000000000002       5
0.009999999999999488      0.42000000000000015      5.000261218553887
0.4199999999999995        0                        6.999999999999999
0.41999999999999954       0.00999999999999963      6.999999999999573
0                         0.4300000000000002       5
0.009999999999999499      0.43000000000000027      5.000225221934103
0.4299999999999995        0                        6.999999999999999
0.4299999999999995        0.009999999999999622     6.999999999999767
0                         0.4400000000000002       5
0.009999999999999508      0.4400000000000003       5.000194311769177
0.4399999999999995        0                        6.999999999999999
0.43999999999999956       0.009999999999999613     6.999999999999872
0                         0.45000000000000023      5
0.009999999999999516      0.45000000000000023      5.000167748059946
0.4499999999999995        0                        6.999999999999999
0.44999999999999957       0.009999999999999605     6.9999999999999325
0                         0.46000000000000024      5
0.009999999999999523      0.4600000000000002       5.000144902152306
0.4599999999999995        0                        6.999999999999999
0.4599999999999996        0.009999999999999596     6.99999999999996
0                         0.47000000000000025      5
0.009999999999999534      0.4700000000000002       5.000125239326156
0.46999999999999953       0                        6.999999999999999
0.46999999999999953       0.009999999999999587     6.999999999999978
0                         0.48000000000000026      5
0.009999999999999542      0.48000000000000015      5.000108304227504
0.47999999999999954       0                        6.999999999999999
0.47999999999999954       0.009999999999999579     6.999999999999988
0                         0.49000000000000027      5
0.009999999999999551      0.49000000000000027      5.000093708656701
0.48999999999999955       0                        6.999999999999999
0.48999999999999955       0.00999999999999957      6.99999999999999
0                         0.5000000000000002       5
0.009999999999999561      0.5000000000000002       5.000081121313594
0.49999999999999956       0                        6.999999999999999
0.49999999999999956       0.009999999999999561     6.999999999999995
0                         0.5100000000000002       5
0.009999999999999567      0.5100000000000002       5.000070259171544
0.5099999999999996        0                        6.999999999999999
0.5099999999999998        0.009999999999999551     6.999999999999997
0                         0.5200000000000002       5
0.009999999999999579      0.5200000000000002       5.000060880210015
0.5199999999999996        0                        6.999999999999999
0.5199999999999996        0.009999999999999542     7.000000000000002
0                         0.5300000000000002       5
0.009999999999999587      0.5300000000000002       5.000052777282425
0.5299999999999996        0                        6.999999999999999
0.5299999999999998        0.009999999999999534     7.000000000000001
0                         0.5400000000000003       5
0.009999999999999596      0.5400000000000003       5.000045772934522
0.5399999999999996        0                        6.999999999999999
0.5399999999999996        0.009999999999999525     6.999999999999998
0                         0.5500000000000003       5
0.009999999999999605      0.5500000000000002       5.000039715019864
0.5499999999999996        0                        6.999999999999999
0.5499999999999998        0.009999999999999516     7
0                         0.5600000000000003       5
0.009999999999999613      0.5600000000000002       5.000034472984948
0.5599999999999996        0                        6.999999999999999
0.5599999999999996        0.009999999999999508     6.999999999999999
0                         0.5700000000000003       5
0.009999999999999622      0.5700000000000003       5.000029934717766
0.5699999999999996        0                        6.999999999999999
0.5699999999999998        0.009999999999999499     6.999999999999999
0                         0.5800000000000003       5
0.00999999999999963       0.5800000000000003       5.0000260038711515
0.5799999999999996        0                        6.999999999999999
0.5799999999999996        0.009999999999999487     6.999999999999997
0                         0.5900000000000003       5
0.00999999999999964       0.5900000000000003       5.000022597586776
0.5899999999999996        0                        6.999999999999999
0.5899999999999999        0.009999999999999482     7.000000000000001
0                         0.6000000000000003       5
0.009999999999999648      0.6000000000000003       5.000019644557719
0.5999999999999996        0                        6.999999999999999
0.5999999999999996        0.009999999999999473     6.999999999999998
0                         0.6100000000000003       5
0.009999999999999657      0.6100000000000003       5.0000170833775295
0.6099999999999997        0                        6.999999999999999
0.6099999999999999        0.009999999999999464     7
0                         0.6200000000000003       5
0.009999999999999665      0.6200000000000003       5.000014861131998
0.6199999999999997        0                        6.999999999999999
0.6199999999999997        0.009999999999999456     6.999999999999997
0                         0.6300000000000003       5
0.009999999999999674      0.6300000000000003       5.000012932196796
0.6299999999999997        0                        6.999999999999999
0.6299999999999999        0.009999999999999443     7.000000000000001
0                         0.6400000000000003       5
0.009999999999999683      0.6400000000000003       5.000011257209959
0.6399999999999997        0                        6.999999999999999
0.6399999999999997        0.009999999999999438     6.999999999999999
0                         0.6500000000000004       5
0.009999999999999693      0.6500000000000004       5.000009802193023
0.6499999999999997        0                        6.999999999999999
0.6499999999999999        0.009999999999999428     6.999999999999998
0                         0.6600000000000004       5
0.009999999999999698      0.6600000000000004       5.000008537798615
0.6599999999999997        0                        6.999999999999999
0.6599999999999997        0.009999999999999419     6.999999999999999
0                         0.6700000000000004       5
0.00999999999999971       0.6700000000000004       5.000007438665849
0.6699999999999997        0                        6.999999999999999
0.6699999999999999        0.009999999999999414     6.999999999999998
0                         0.6800000000000004       5
0.00999999999999972       0.6800000000000004       5.000006482867595
0.6799999999999997        0                        6.999999999999999
0.6799999999999997        0.009999999999999402     6.9999999999999964
0                         0.6900000000000004       5
0.009999999999999728      0.6900000000000004       5.000005651436195
0.6899999999999997        0                        6.999999999999999
0.69                      0.009999999999999393     6.999999999999999
0                         0.7000000000000004       5
0.009999999999999737      0.7000000000000005       5.000004927956193
0.6999999999999997        0                        6.999999999999999
0.6999999999999997        0.009999999999999384     7.000000000000001
0                         0.7100000000000004       5
0.009999999999999745      0.7100000000000005       5.000004298214338
0.7099999999999997        0                        6.999999999999999
0.71                      0.009999999999999376     7.000000000000003
0                         0.7200000000000004       5
0.009999999999999754      0.7200000000000004       5.000003749898667
0.7199999999999998        0                        6.999999999999999
0.7199999999999998        0.009999999999999367     7.000000000000002
0                         0.7300000000000004       5
0.009999999999999763      0.7300000000000004       5.000003272339533
0.7299999999999998        0                        6.999999999999999
0.73                      0.009999999999999355     7
0                         0.7400000000000004       5
0.009999999999999771      0.7400000000000004       5.000002856286658
0.7399999999999998        0                        6.999999999999999
0.7399999999999998        0.00999999999999935      7.000000000000002
0                         0.7500000000000004       5
0.00999999999999978       0.7500000000000004       5.000002493717061
0.7499999999999998        0                        6.999999999999999
0.75                      0.009999999999999341     6.999999999999997
0                         0.7600000000000005       5
0.009999999999999789      0.7600000000000005       5.000002177669471
0.7599999999999998        0                        6.999999999999999
0.7599999999999998        0.009999999999999332     6.9999999999999964
0                         0.7700000000000005       5
0.009999999999999797      0.7700000000000005       5.000001902101528
0.7699999999999998        0                        6.999999999999999
0.7699999999999998        0.009999999999999324     6.9999999999999964
0                         0.7800000000000005       5
0.009999999999999806      0.7800000000000005       5.000001661766521
0.7799999999999998        0                        6.999999999999999
0.7799999999999996        0.009999999999999312     6.999999999999982
0                         0.7900000000000005       5
0.009999999999999813      0.7900000000000004       5.000001452106993
0.7899999999999998        0                        6.999999999999999
0.7899999999999998        0.009999999999999305     6.999999999999934
0                         0.8000000000000005       5
0.009999999999999825      0.8000000000000004       5.00000126916279
0.7999999999999998        0                        6.999999999999999
0.7999999999999996        0.009999999999999296     6.999999999999744
0                         0.8100000000000005       5
0.009999999999999832      0.8100000000000005       5.000001109491625
0.8099999999999998        0                        6.999999999999999
0.8099999999999998        0.00999999999999929      6.999999999998962
0                         0.8200000000000005       5
0.009999999999999842      0.8200000000000005       5.000000970100364
0.8199999999999998        0                        6.999999999999999
0.8199999999999997        0.009999999999999282     6.999999999995761
0                         0.8300000000000005       5
0.009999999999999851      0.8300000000000006       5.000000848385588
0.8299999999999998        0                        6.999999999999999
0.8299999999999997        0.00999999999999927      6.999999999982618
0                         0.8400000000000005       5
0.00999999999999986       0.8400000000000006       5.000000742082244
0.8399999999999999        0                        6.999999999999999
0.8399999999999996        0.009999999999999261     6.999999999928415
0                         0.8500000000000005       5
0.009999999999999868      0.8500000000000006       5.000000649219555
0.8499999999999999        0                        6.999999999999999
0.8499999999999999        0.009999999999999253     6.99999999970385
0                         0.8600000000000005       5
0.009999999999999877      0.8600000000000005       5.0000005680855395
0.8599999999999999        0                        6.999999999999999
0.8599999999999997        0.009999999999999244     6.999999998768062
0                         0.8700000000000006       5
0.009999999999999886      0.8700000000000006       5.000000497212537
0.8699999999999999        0                        6.999999999999999
0.8699999999999999        0.009999999999999235     6.999999994847335
0                         0.8800000000000006       5
0.009999999999999894      0.8800000000000006       5.000000435471078
0.8799999999999999        0                        6.999999999999999
0.8799999999999997        0.009999999999999223     6.9999999782869455
0                         0.8900000000000006       5
0.009999999999999903      0.8900000000000006       5.00000038280074
0.8899999999999999        0                        6.999999999999999
0.8899999999999999        0.009999999999999214     6.999999907889911
0                         0.9000000000000006       5
0.009999999999999912      0.9000000000000006       5.000000345190546
0.8999999999999999        0                        6.999999999999999
0.8999999999999997        0.00999999999999921      6.999999604976445
0                         0.9100000000000006       5
0.00999999999999992       0.9100000000000006       5.000000365505371
0.9099999999999999        0                        6.999999999999999
0.91                      0.0099999999999992       6.99999829215053
0                         0.9200000000000006       5
0.009999999999999929      0.9200000000000005       5.000000733889166
0.9199999999999999        0                        6.999999999999999
0.9199999999999998        0.009999999999999192     6.9999924874234285
0                         0.9300000000000006       5
0.00999999999999994       0.9300000000000005       5.000003292535717
0.9299999999999999        0                        6.999999999999999
0.93                      0.009999999999999181     6.999966633332392
0                         0.9400000000000006       5
0.009999999999999945      0.9400000000000006       5.000020743069255
0.94                      0                        6.999999999999999
0.94                      0.009999999999999173     6.999847273034218
0                         0.9500000000000006       5
0.009999999999999957      0.9500000000000007       5.000135383354023
0.95                      0                        6.999999999999999
0.95                      0.009999999999999164     6.999292135672982
0                         0.9600000000000006       5
0.009999999999999962      0.9600000000000007       5.000947714212316
0.96                      0                        6.999999999999999
0.96                      0.009999999999999159     6.996528643761796
0                         0.9700000000000006       5
0.009999999999999974      0.9700000000000008       5.00660676544385
0.97                      0                        6.999999999999999
0.97                      0.00999999999999915      6.982444927277708
0                         0.9800000000000006       5
0.009999999999999983      0.9800000000000006       5.050656485504002
0.98                      0                        6.999999999999999
0.98                      0.009999999999999138     6.901341575326168
0                         0.9900000000000007       5
0.009999999999999992      0.9900000000000007       5.46171430328796
0.99                      0                        6.999999999999999
0.99                      0.00999999999999913      6.281005592168568
0                         1                        7.5
0.01                      1                        10
1                         0                        4
1                         0.00999999999999912      1
0.01999999999999999       0.9900000000000007       5.746547165577116
0.02                      1                        10
0.99                      0.01999999999999914      5.608763667659921
1                         0.01999999999999913      1
0.029999999999999992      0.9900000000000007       5.819618026140732
0.03                      1                        10
0.99                      0.029999999999999152     5.297267342591544
1                         0.02999999999999914      1
0.03999999999999997       0.9900000000000008       5.845138866734631
0.039999999999999994      1                        10
0.99                      0.039999999999999154     5.123764580825317
1                         0.03999999999999915      1
0.04999999999999998       0.9900000000000007       5.855102225010257
0.04999999999999999       1                        10
0.99                      0.04999999999999916      5.016367731768961
1                         0.049999999999999156     1
0.05999999999999998       0.9900000000000007       5.859278563318797
0.059999999999999984      1                        10
0.9899999999999999        0.05999999999999917      4.945261664104609
1                         0.059999999999999165     1
0.06999999999999999       0.9900000000000007       5.861115647588053
0.06999999999999998       1                        10
0.99                      0.06999999999999919      4.895941190623046
1                         0.06999999999999917      1
0.07999999999999996       0.9900000000000007       5.861955108863775
0.07999999999999997       1                        10
0.99                      0.0799999999999992       4.8605469000055885
1                         0.07999999999999918      1
0.08999999999999996       0.9900000000000004       5.8623541026276165
0.08999999999999997       1                        10
0.9900000000000001        0.0899999999999992       4.8344782995805335
1                         0.08999999999999919      1
0.09999999999999995       0.9900000000000004       5.862555940773774
0.09999999999999996       1                        10
0.9900000000000001        0.09999999999999921      4.814881626338257
1                         0.0999999999999992       1
0.10999999999999997       0.9900000000000003       5.862672156300802
0.10999999999999996       1                        10
0.9900000000000001        0.10999999999999922      4.799904951898154
1                         0.10999999999999921      1
0.11999999999999994       0.9900000000000004       5.862757438385363
0.11999999999999995       1                        10
0.9900000000000001        0.1199999999999992       4.788302409868614
1                         0.11999999999999922      1
0.12999999999999995       0.9900000000000007       5.862842113799966
0.12999999999999995       1                        10
0.9900000000000001        0.12999999999999923      4.7792108858827005
1                         0.12999999999999923      1
0.13999999999999996       0.9900000000000007       5.862947008826561
0.13999999999999996       1                        10
0.9900000000000001        0.1399999999999993       4.772017696983129
1                         0.13999999999999924      1
0.14999999999999997       0.9900000000000007       5.863090779559296
0.14999999999999997       1                        10
0.9900000000000001        0.1499999999999993       4.766278936232558
1                         0.14999999999999925      1
0.15999999999999998       0.9900000000000007       5.86329399368307
0.15999999999999998       1                        10
0.9900000000000003        0.1599999999999993       4.761667328823949
1                         0.15999999999999925      1
0.16999999999999998       0.9900000000000007       5.863581846315248
0.16999999999999998       1                        10