% Model:              conv_diff.mph
% Version:            COMSOL 5.6.0.341
% Date:               Jan 11 2022, 17:07
% Dimension:          2
% Nodes:              10201
% Expressions:        1
% Description:        因变量
% Length unit:        null
% x                       y                        u
0                         0                        6
0.00999999999999912       0                        6.999999999999999
0                         0.01                     5
0.00999999999999913       0.009999999999999992     6.549889043482279
0                         0.02                     5
0.009999999999999138      0.01999999999999999      5.8135707219554185
0.01999999999999913       0                        6.999999999999999
0.01999999999999914       0.009999999999999981     7.051656490125607
0                         0.03                     5
0.00999999999999915       0.029999999999999992     5.344895985904679
0.02999999999999914       0                        6.999999999999999
0.029999999999999152      0.009999999999999974     7.012903481425631
0                         0.039999999999999994     5
0.009999999999999159      0.03999999999999999      5.089870855407516
0.03999999999999915       0                        6.999999999999999
0.039999999999999154      0.009999999999999966     6.995643657981825
0                         0.04999999999999999      5
0.009999999999999166      0.04999999999999998      4.980908934767882
0.049999999999999156      0                        6.999999999999999
0.04999999999999917       0.009999999999999957     6.999414077716259
0                         0.059999999999999984     5
0.009999999999999176      0.05999999999999998      4.9555687001206
0.059999999999999165      0                        6.999999999999999
0.05999999999999918       0.009999999999999946     7.000433400624369
0                         0.06999999999999998      5
0.009999999999999181      0.06999999999999998      4.966971423844292
0.06999999999999917       0                        6.999999999999999
0.06999999999999917       0.00999999999999994      7.000014309096565
0                         0.07999999999999997      5
0.009999999999999192      0.07999999999999996      4.986411440568798
0.07999999999999918       0                        6.999999999999999
0.0799999999999992        0.009999999999999929     6.99995478236231
0                         0.08999999999999997      5
0.0099999999999992        0.08999999999999996      5.00061340368836
0.08999999999999919       0                        6.999999999999999
0.0899999999999992        0.009999999999999924     7.000002932878514
0                         0.09999999999999996      5
0.00999999999999921       0.09999999999999995      5.006581270925497
0.0999999999999992        0                        6.999999999999999
0.09999999999999921       0.009999999999999912     7.000004693547054
0                         0.10999999999999996      5
0.009999999999999218      0.10999999999999996      5.006430974209381
0.10999999999999921       0                        6.999999999999999
0.10999999999999922       0.009999999999999907     6.999999192932811
0                         0.11999999999999995      5
0.009999999999999227      0.11999999999999994      5.00357962613927
0.11999999999999922       0                        6.999999999999999
0.1199999999999992        0.009999999999999894     6.999999534782941
0                         0.12999999999999995      5
0.009999999999999235      0.12999999999999995      5.0006738214610875
0.12999999999999923       0                        6.999999999999999
0.12999999999999923       0.009999999999999887     7.0000001439683786
0                         0.13999999999999996      5
0.009999999999999242      0.13999999999999996      4.998965716506572
0.13999999999999924       0                        6.999999999999999
0.13999999999999924       0.009999999999999877     7.000000041538717
0                         0.14999999999999997      5
0.009999999999999253      0.14999999999999997      4.998559084373709
0.14999999999999925       0                        6.999999999999999
0.1499999999999993        0.009999999999999867     6.999999977928552
0                         0.15999999999999998      5
0.009999999999999261      0.15999999999999998      4.998968055261397
0.15999999999999925       0                        6.999999999999999
0.1599999999999993        0.00999999999999986      6.999999997124469
0                         0.16999999999999998      5
0.00999999999999927       0.16999999999999998      4.9996155064352035
0.16999999999999926       0                        6.999999999999999
0.16999999999999926       0.009999999999999848     7.000000003093383
0                         0.18                     5
0.009999999999999279      0.18                     5.000112845807827
0.17999999999999927       0                        6.999999999999999
0.1799999999999993        0.009999999999999842     7.0000000000399165
0                         0.19                     5
0.009999999999999286      0.19                     5.000324290915894
0.18999999999999928       0                        6.999999999999999
0.18999999999999928       0.00999999999999983      6.999999999596778
0                         0.2                      5
0.0099999999999993        0.2                      5.000298276648627
0.1999999999999993        0                        6.999999999999999
0.1999999999999993        0.009999999999999825     7.000000000037836
0                         0.21000000000000002      5
0.009999999999999308      0.21000000000000002      5.000158417465488
0.2099999999999993        0                        6.999999999999999
0.20999999999999927       0.009999999999999816     7.000000000048797
0                         0.22000000000000003      5
0.009999999999999315      0.22000000000000006      5.000016847925373
0.2199999999999993        0                        6.999999999999999
0.2199999999999993        0.009999999999999806     6.999999999989764
0                         0.23000000000000004      5
0.009999999999999322      0.23000000000000004      4.9999336521231195
0.22999999999999932       0                        6.999999999999999
0.22999999999999932       0.009999999999999797     6.999999999994621
0                         0.24000000000000005      5
0.009999999999999332      0.24000000000000005      4.999916640775891
0.23999999999999932       0                        6.999999999999999
0.23999999999999932       0.009999999999999789     7.000000000001948
0                         0.25000000000000006      5
0.009999999999999344      0.25000000000000006      4.9999425121645755
0.24999999999999933       0                        6.999999999999999
0.24999999999999933       0.00999999999999978      7.000000000000511
0                         0.26000000000000006      5
0.00999999999999935       0.26000000000000006      4.999980853732208
0.25999999999999934       0                        6.999999999999999
0.25999999999999934       0.009999999999999771     6.999999999999682
0                         0.2700000000000001       5
0.009999999999999357      0.2700000000000001       5.000009957938094
0.26999999999999935       0                        6.999999999999999
0.26999999999999935       0.009999999999999763     6.9999999999999725
0                         0.2800000000000001       5
0.009999999999999367      0.2800000000000001       5.0000218137062165
0.27999999999999936       0                        6.999999999999999
0.27999999999999936       0.009999999999999754     7.000000000000046
0                         0.2900000000000001       5
0.009999999999999376      0.29000000000000004      5.000019203204574
0.28999999999999937       0                        6.999999999999999
0.2899999999999994        0.009999999999999745     6.999999999999999
0                         0.3000000000000001       5
0.009999999999999384      0.30000000000000016      5.00000968102817
0.2999999999999994        0                        6.999999999999999
0.29999999999999943       0.009999999999999737     6.999999999999991
0                         0.3100000000000001       5
0.009999999999999391      0.31000000000000016      5.000000304638276
0.3099999999999994        0                        6.999999999999999
0.30999999999999933       0.009999999999999728     7.000000000000004
0                         0.3200000000000001       5
0.009999999999999402      0.3200000000000001       4.999994932632462
0.3199999999999994        0                        6.999999999999999
0.31999999999999934       0.00999999999999972      7
0                         0.3300000000000001       5
0.00999999999999941       0.3300000000000001       4.999994047220582
0.3299999999999994        0                        6.999999999999999
0.3299999999999994        0.00999999999999971      7.000000000000003
0                         0.34000000000000014      5
0.009999999999999419      0.34000000000000014      4.999996048551031
0.3399999999999994        0                        6.999999999999999
0.3399999999999994        0.009999999999999702     7.000000000000003
0                         0.35000000000000014      5
0.009999999999999431      0.3500000000000001       4.999998836270289
0.3499999999999994        0                        6.999999999999999
0.34999999999999953       0.009999999999999693     6.9999999999999964
0                         0.36000000000000015      5
0.009999999999999438      0.36000000000000004      5.000000901220961
0.35999999999999943       0                        6.999999999999999
0.35999999999999954       0.009999999999999683     7.000000000000003
0                         0.37000000000000016      5
0.009999999999999447      0.37000000000000016      5.000001693610741
0.36999999999999944       0                        6.999999999999999
0.36999999999999955       0.009999999999999674     6.999999999999999
0                         0.38000000000000017      5
0.009999999999999454      0.38000000000000017      5.000001433230602
0.37999999999999945       0                        6.999999999999999
0.37999999999999956       0.009999999999999665     6.9999999999999964
0                         0.3900000000000002       5
0.009999999999999464      0.3900000000000002       5.0000006837269355
0.38999999999999946       0                        6.999999999999999
0.38999999999999957       0.009999999999999657     6.9999999999999964
0                         0.4000000000000002       5
0.009999999999999475      0.4000000000000002       4.9999999693195525
0.39999999999999947       0                        6.999999999999999
0.3999999999999995        0.009999999999999648     7
0                         0.4100000000000002       5
0.009999999999999482      0.4100000000000002       4.999999573805249
0.4099999999999995        0                        6.999999999999999
0.40999999999999953       0.00999999999999964      6.999999999999999
0                         0.4200000000000002       5
0.009999999999999488      0.42000000000000015      4.999999526024645
0.4199999999999995        0                        6.999999999999999
0.41999999999999954       0.00999999999999963      6.999999999999997
0                         0.4300000000000002       5
0.009999999999999499      0.43000000000000027      4.999999697354957
0.4299999999999995        0                        6.999999999999999
0.4299999999999995        0.009999999999999622     7.000000000000001
0                         0.4400000000000002       5
0.009999999999999508      0.4400000000000003       4.999999922698379
0.4399999999999995        0                        6.999999999999999
0.43999999999999956       0.009999999999999613     6.999999999999999
0                         0.45000000000000023      5
0.009999999999999516      0.45000000000000023      5.00000008480422
0.4499999999999995        0                        6.999999999999999
0.44999999999999957       0.009999999999999605     6.999999999999999
0                         0.46000000000000024      5
0.009999999999999523      0.4600000000000002       5.000000142698061
0.4599999999999995        0                        6.999999999999999
0.4599999999999996        0.009999999999999596     6.999999999999998
0                         0.47000000000000025      5
0.009999999999999534      0.4700000000000002       5.000000116304557
0.46999999999999953       0                        6.999999999999999
0.46999999999999953       0.009999999999999587     6.999999999999999
0                         0.48000000000000026      5
0.009999999999999542      0.48000000000000015      5.000000052299606
0.47999999999999954       0                        6.999999999999999
0.47999999999999954       0.009999999999999579     7.000000000000001
0                         0.49000000000000027      5
0.009999999999999551      0.49000000000000027      4.999999993331159
0.48999999999999955       0                        6.999999999999999
0.48999999999999955       0.00999999999999957      7.000000000000003
0                         0.5000000000000002       5
0.009999999999999561      0.5000000000000002       4.999999961948472
0.49999999999999956       0                        6.999999999999999
0.49999999999999956       0.009999999999999561     6.999999999999999
0                         0.5100000000000002       5
0.009999999999999567      0.5100000000000002       4.999999959682973
0.5099999999999996        0                        6.999999999999999
0.5099999999999998        0.009999999999999551     7
0                         0.5200000000000002       5
0.009999999999999579      0.5200000000000002       4.999999975261193
0.5199999999999996        0                        6.999999999999999
0.5199999999999996        0.009999999999999542     6.999999999999999
0                         0.5300000000000002       5
0.009999999999999587      0.5300000000000002       4.9999999946882605
0.5299999999999996        0                        6.999999999999999
0.5299999999999998        0.009999999999999534     6.9999999999999964
0                         0.5400000000000003       5
0.009999999999999596      0.5400000000000003       5.0000000082259
0.5399999999999996        0                        6.999999999999999
0.5399999999999996        0.009999999999999525     7.000000000000001
0                         0.5500000000000003       5
0.009999999999999605      0.5500000000000002       5.0000000126703785
0.5499999999999996        0                        6.999999999999999
0.5499999999999998        0.009999999999999516     6.9999999999999964
0                         0.5600000000000003       5
0.009999999999999613      0.5600000000000002       5.000000009955168
0.5599999999999996        0                        6.999999999999999
0.5599999999999996        0.009999999999999508     7.000000000000001
0                         0.5700000000000003       5
0.009999999999999622      0.5700000000000003       5.000000004198591
0.5699999999999996        0                        6.999999999999999
0.5699999999999998        0.009999999999999499     7.000000000000002
0                         0.5800000000000003       5
0.00999999999999963       0.5800000000000003       4.999999999074315
0.5799999999999996        0                        6.999999999999999
0.5799999999999996        0.009999999999999487     6.999999999999997
0                         0.5900000000000003       5
0.00999999999999964       0.5900000000000003       4.999999996463709
0.5899999999999996        0                        6.999999999999999
0.5899999999999999        0.009999999999999482     6.999999999999998
0                         0.6000000000000003       5
0.009999999999999648      0.6000000000000003       4.999999996416207
0.5999999999999996        0                        6.999999999999999
0.5999999999999996        0.009999999999999473     7
0                         0.6100000000000003       5
0.009999999999999657      0.6100000000000003       4.999999997889628
0.6099999999999997        0                        6.999999999999999
0.6099999999999999        0.009999999999999464     7
0                         0.6200000000000003       5
0.009999999999999665      0.6200000000000003       4.999999999638001
0.6199999999999997        0                        6.999999999999999
0.6199999999999997        0.009999999999999456     7.000000000000003
0                         0.6300000000000003       5
0.009999999999999674      0.6300000000000003       5.000000000816098
0.6299999999999997        0                        6.999999999999999
0.6299999999999999        0.009999999999999443     7
0                         0.6400000000000003       5
0.009999999999999683      0.6400000000000003       5.000000001166449
0.6399999999999997        0                        6.999999999999999
0.6399999999999997        0.009999999999999438     7.000000000000003
0                         0.6500000000000004       5
0.009999999999999693      0.6500000000000004       5.000000000883866
0.6499999999999997        0                        6.999999999999999
0.6499999999999999        0.009999999999999428     7
0                         0.6600000000000004       5
0.009999999999999698      0.6600000000000004       5.000000000347378
0.6599999999999997        0                        6.999999999999999
0.6599999999999997        0.009999999999999419     6.999999999999996
0                         0.6700000000000004       5
0.00999999999999971       0.6700000000000004       4.99999999988598
0.6699999999999997        0                        6.999999999999999
0.6699999999999999        0.009999999999999414     6.999999999999997
0                         0.6800000000000004       5
0.00999999999999972       0.6800000000000004       4.99999999966187
0.6799999999999997        0                        6.999999999999999
0.6799999999999997        0.009999999999999402     6.999999999999998
0                         0.6900000000000004       5
0.009999999999999728      0.6900000000000004       4.999999999671352
0.6899999999999997        0                        6.999999999999999
0.69                      0.009999999999999393     6.999999999999998
0                         0.7000000000000004       5
0.009999999999999737      0.7000000000000005       4.9999999998145945
0.6999999999999997        0                        6.999999999999999
0.6999999999999997        0.009999999999999384     6.999999999999996
0                         0.7100000000000004       5
0.009999999999999745      0.7100000000000005       4.999999999976811
0.7099999999999997        0                        6.999999999999999
0.71                      0.009999999999999376     7.000000000000001
0                         0.7200000000000004       5
0.009999999999999754      0.7200000000000004       5.000000000082348
0.7199999999999998        0                        6.999999999999999
0.7199999999999998        0.009999999999999367     6.9999999999999964
0                         0.7300000000000004       5
0.009999999999999763      0.7300000000000004       5.000000000110238
0.7299999999999998        0                        6.999999999999999
0.73                      0.009999999999999355     6.999999999999998
0                         0.7400000000000004       5
0.009999999999999771      0.7400000000000004       5.000000000080566
0.7399999999999998        0                        6.999999999999999
0.7399999999999998        0.00999999999999935      6.999999999999997
0                         0.7500000000000004       5
0.00999999999999978       0.7500000000000004       5.000000000029266
0.7499999999999998        0                        6.999999999999999
0.75                      0.009999999999999341     7.0000000000000036
0                         0.7600000000000005       5
0.009999999999999789      0.7600000000000005       4.999999999986637
0.7599999999999998        0                        6.999999999999999
0.7599999999999998        0.009999999999999332     7.000000000000001
0                         0.7700000000000005       5
0.009999999999999797      0.7700000000000005       4.999999999966982
0.7699999999999998        0                        6.999999999999999
0.7699999999999998        0.009999999999999324     6.999999999999979
0                         0.7800000000000005       5
0.009999999999999806      0.7800000000000005       4.999999999969162
0.7799999999999998        0                        6.999999999999999
0.7799999999999996        0.009999999999999312     7.000000000000063
0                         0.7900000000000005       5
0.009999999999999813      0.7900000000000004       4.999999999983369
0.7899999999999998        0                        6.999999999999999
0.7899999999999998        0.009999999999999305     6.999999999999988
0                         0.8000000000000005       5
0.009999999999999825      0.8000000000000004       4.999999999998763
0.7999999999999998        0                        6.999999999999999
0.7999999999999996        0.009999999999999296     6.999999999999153
0                         0.8100000000000005       5
0.009999999999999832      0.8100000000000005       5.000000000008416
0.8099999999999998        0                        6.999999999999999
0.8099999999999998        0.00999999999999929      7.000000000003338
0                         0.8200000000000005       5
0.009999999999999842      0.8200000000000005       5.000000000010641
0.8199999999999998        0                        6.999999999999999
0.8199999999999997        0.009999999999999282     6.999999999999055
0                         0.8300000000000005       5
0.009999999999999851      0.8300000000000006       5.0000000000074944
0.8299999999999998        0                        6.999999999999999
0.8299999999999997        0.00999999999999927      6.999999999957759
0                         0.8400000000000005       5
0.00999999999999986       0.8400000000000006       5.000000000002113
0.8399999999999999        0                        6.999999999999999
0.8399999999999996        0.009999999999999261     7.000000000172016
0                         0.8500000000000005       5
0.009999999999999868      0.8500000000000006       4.999999999999146
0.8499999999999999        0                        6.999999999999999
0.8499999999999999        0.009999999999999253     6.999999999940896
0                         0.8600000000000005       5
0.009999999999999877      0.8600000000000005       5.000000000005202
0.8599999999999999        0                        6.999999999999999
0.8599999999999997        0.009999999999999244     6.999999997784057
0                         0.8700000000000006       5
0.009999999999999886      0.8700000000000006       4.999999999959638
0.8699999999999999        0                        6.999999999999999
0.8699999999999999        0.009999999999999235     7.000000009340459
0                         0.8800000000000006       5
0.009999999999999894      0.8800000000000006       4.999999999850921
0.8799999999999999        0                        6.999999999999999
0.8799999999999997        0.009999999999999223     6.999999996401199
0                         0.8900000000000006       5
0.009999999999999903      0.8900000000000006       5.000000001392249
0.8899999999999999        0                        6.999999999999999
0.8899999999999999        0.009999999999999214     6.999999874414844
0                         0.9000000000000006       5
0.009999999999999912      0.9000000000000006       5.000000000999433
0.8999999999999999        0                        6.999999999999999
0.8999999999999997        0.00999999999999921      7.000000549647344
0                         0.9100000000000006       5
0.00999999999999992       0.9100000000000006       4.999999956379686
0.9099999999999999        0                        6.999999999999999
0.91                      0.0099999999999992       6.999999784642426
0                         0.9200000000000006       5
0.009999999999999929      0.9200000000000005       5.0000000736624735
0.9199999999999999        0                        6.999999999999999
0.9199999999999998        0.009999999999999192     6.9999919151201535
0                         0.9300000000000006       5
0.00999999999999994       0.9300000000000005       5.000001222324205
0.9299999999999999        0                        6.999999999999999
0.93                      0.009999999999999181     7.000037062247555
0                         0.9400000000000006       5
0.009999999999999945      0.9400000000000006       4.999994471646408
0.94                      0                        6.999999999999999
0.94                      0.009999999999999173     6.9999883789266315
0                         0.9500000000000006       5
0.009999999999999957      0.9500000000000007       4.99996905829976
0.95                      0                        6.999999999999999
0.95                      0.009999999999999164     6.999334938153168
0                         0.9600000000000006       5
0.009999999999999962      0.9600000000000007       5.000304654635721
0.96                      0                        6.999999999999999
0.96                      0.009999999999999159     7.003273043274556
0                         0.9700000000000006       5
0.009999999999999974      0.9700000000000008       5.000694180314302
0.97                      0                        6.999999999999999
0.97                      0.00999999999999915      7.000960936560115
0                         0.9800000000000006       5
0.009999999999999983      0.9800000000000006       4.9800863400064985
0.98                      0                        6.999999999999999
0.98                      0.009999999999999138     6.8810186807950044
0                         0.9900000000000007       5
0.009999999999999992      0.9900000000000007       4.9416636338948345
0.99                      0                        6.999999999999999
0.99                      0.00999999999999913      8.010329846295418
0                         1                        7.5
0.01                      1                        10
1                         0                        4
1                         0.00999999999999912      1
0.01999999999999999       0.9900000000000007       4.747575380696532
0.02                      1                        10
0.99                      0.01999999999999914      8.6118707985235
1                         0.01999999999999913      1
0.029999999999999992      0.9900000000000007       4.742190733898996
0.03                      1                        10
0.99                      0.029999999999999152     8.97067782471449
1                         0.02999999999999914      1
0.03999999999999997       0.9900000000000008       4.749040991023075
0.039999999999999994      1                        10
0.99                      0.039999999999999154     9.149532772169284
1                         0.03999999999999915      1
0.04999999999999998       0.9900000000000007       4.7490645797892945
0.04999999999999999       1                        10
0.99                      0.04999999999999916      9.214266937342
1                         0.049999999999999156     1
0.05999999999999998       0.9900000000000007       4.7485675139070285
0.059999999999999984      1                        10
0.9899999999999999        0.05999999999999917      9.219664556537413
1                         0.059999999999999165     1
0.06999999999999999       0.9900000000000007       4.748599520771039
0.06999999999999998       1                        10
0.99                      0.06999999999999919      9.203338294880668
1                         0.06999999999999917      1
0.07999999999999996       0.9900000000000007       4.748642838892107
0.07999999999999997       1                        10
0.99                      0.0799999999999992       9.186039246381657
1                         0.07999999999999918      1
0.08999999999999996       0.9900000000000004       4.74863613263962
0.08999999999999997       1                        10
0.9900000000000001        0.0899999999999992       9.175715004402921
1                         0.08999999999999919      1
0.09999999999999995       0.9900000000000004       4.748632202479373
0.09999999999999996       1                        10
0.9900000000000001        0.09999999999999921      9.172691949172316
1                         0.0999999999999992       1
0.10999999999999997       0.9900000000000003       4.748633282934762
0.10999999999999996       1                        10
0.9900000000000001        0.10999999999999922      9.174146049037937
1                         0.10999999999999921      1
0.11999999999999994       0.9900000000000004       4.748633623743913
0.11999999999999995       1                        10
0.9900000000000001        0.1199999999999992       9.177017627307537
1                         0.11999999999999922      1
0.12999999999999995       0.9900000000000007       4.748633465926383
0.12999999999999995       1                        10
0.9900000000000001        0.12999999999999923      9.179340543113463
1                         0.12999999999999923      1
0.13999999999999996       0.9900000000000007       4.748633441667313
0.13999999999999996       1                        10
0.9900000000000001        0.1399999999999993       9.180423316383642
1                         0.13999999999999924      1
0.14999999999999997       0.9900000000000007       4.748633465937787
0.14999999999999997       1                        10
0.9900000000000001        0.1499999999999993       9.180446078745646
1                         0.14999999999999925      1
0.15999999999999998       0.9900000000000007       4.748633463267607
0.15999999999999998       1                        10
0.9900000000000003        0.1599999999999993       9.179933632646327
1                         0.15999999999999925      1
0.16999999999999998       0.9900000000000007       4.748633452195128
0.16999999999999998       1                        10