% Model:              conv_diff.mph
% Version:            COMSOL 5.6.0.341
% Date:               Apr 6 2022, 21:06
% Dimension:          2
% Nodes:              2601
% Expressions:        1
% Description:        因变量
% Length unit:        null
% x                       y                        u
0                         0                        6
0.02000000000001001       0                        6.999999999999999
0                         0.02                     5
0.020000000000009812      0.0200000000000002       6.368076685676144
0                         0.04                     5
0.02000000000000961       0.04000000000000019      5.763547079902018
0.040000000000009805      0                        6.999999999999999
0.040000000000009604      0.0200000000000004       6.882942602971804
0                         0.06                     5
0.020000000000009416      0.06000000000000019      5.45401305406113
0.0600000000000096        0                        6.999999999999999
0.06000000000000941       0.0200000000000006       6.974398929220502
0                         0.07999999999999999      5
0.02000000000000921       0.08000000000000018      5.282657328764569
0.0800000000000094        0                        6.999999999999999
0.08000000000000923       0.020000000000000802     6.993897027916516
0                         0.09999999999999998      5
0.02000000000000901       0.10000000000000016      5.182030170651317
0.10000000000000919       0                        6.999999999999999
0.10000000000000904       0.020000000000001003     6.998463805862425
0                         0.11999999999999997      5
0.020000000000008806      0.12000000000000015      5.120258934224802
0.12000000000000899       0                        6.999999999999999
0.12000000000000881       0.020000000000001197     6.999598419043344
0                         0.13999999999999996      5
0.020000000000008608      0.1400000000000001       5.0810398863820225
0.14000000000000878       0                        6.999999999999999
0.14000000000000862       0.02000000000000141      6.999892047573962
0                         0.15999999999999995      5
0.020000000000008407      0.16000000000000014      5.055479784149328
0.16000000000000858       0                        6.999999999999999
0.1600000000000084        0.020000000000001603     6.99997034882559
0                         0.17999999999999994      5
0.020000000000008202      0.1800000000000001       5.038472739679035
0.18000000000000838       0                        6.999999999999999
0.1800000000000082        0.0200000000000018       6.999991715099195
0                         0.19999999999999993      5
0.020000000000008015      0.20000000000000004      5.02696531415325
0.20000000000000817       0                        6.999999999999999
0.200000000000008         0.020000000000002002     6.999997652573064
0                         0.21999999999999992      5
0.020000000000007807      0.22000000000000008      5.0190707223655435
0.22000000000000797       0                        6.999999999999999
0.22000000000000774       0.020000000000002204     6.99999932712908
0                         0.2399999999999999       5
0.020000000000007602      0.24000000000000007      5.013591648422545
0.24000000000000776       0                        6.999999999999999
0.2400000000000076        0.020000000000002408     6.999999805229743
0                         0.2599999999999999       5
0.020000000000007408      0.26000000000000006      5.0097514693590846
0.26000000000000756       0                        6.999999999999999
0.2600000000000074        0.020000000000002603     6.999999943147256
0                         0.2799999999999999       5
0.020000000000007206      0.28                     5.007037146475146
0.28000000000000735       0                        6.999999999999999
0.2800000000000072        0.0200000000000028       6.9999999832841295
0                         0.29999999999999993      5
0.020000000000007002      0.3                      5.005104494681565
0.30000000000000715       0                        6.999999999999999
0.300000000000007         0.020000000000003        6.999999995053945
0                         0.31999999999999995      5
0.020000000000006807      0.32                     5.003719547751449
0.32000000000000695       0                        6.999999999999999
0.3200000000000069        0.020000000000003203     6.999999998528313
0                         0.33999999999999997      5
0.020000000000006606      0.3400000000000001       5.002721447952131
0.34000000000000674       0                        6.999999999999999
0.3400000000000066        0.020000000000003404     6.999999999559922
0                         0.36                     5
0.020000000000006405      0.3600000000000001       5.001998505578313
0.36000000000000654       0                        6.999999999999999
0.3600000000000064        0.020000000000003605     6.999999999867819
0                         0.38                     5
0.020000000000006207      0.3800000000000001       5.001472497533192
0.38000000000000633       0                        6.999999999999999
0.38000000000000633       0.020000000000003803     6.99999999996014
0                         0.4                      5
0.020000000000006006      0.40000000000000013      5.001088220541518
0.40000000000000613       0                        6.999999999999999
0.400000000000006         0.020000000000004004     6.999999999987937
0                         0.42000000000000004      5
0.020000000000005805      0.42000000000000015      5.000806452508431
0.4200000000000059        0                        6.999999999999999
0.4200000000000058        0.020000000000004205     6.999999999996335
0                         0.44000000000000006      5
0.020000000000005607      0.44000000000000017      5.000599157319548
0.4400000000000057        0                        6.999999999999999
0.44000000000000566       0.020000000000004403     6.999999999998885
0                         0.4600000000000001       5
0.0200000000000054        0.46000000000000024      5.0004461858075535
0.4600000000000055        0                        6.999999999999999
0.4600000000000054        0.020000000000004604     6.999999999999658
0                         0.4800000000000001       5
0.020000000000005205      0.4800000000000002       5.00033298614415
0.4800000000000053        0                        6.999999999999999
0.4800000000000052        0.020000000000004806     6.999999999999893
0                         0.5000000000000001       5
0.02000000000000501       0.5000000000000002       5.00024900233036
0.5000000000000051        0                        6.999999999999999
0.500000000000005         0.020000000000005007     6.999999999999968
0                         0.5200000000000001       5
0.020000000000004806      0.5200000000000002       5.000186546097598
0.5200000000000049        0                        6.999999999999999
0.5200000000000048        0.020000000000005205     6.9999999999999885
0                         0.5400000000000001       5
0.020000000000004604      0.5400000000000003       5.000139997229139
0.5400000000000047        0                        6.999999999999999
0.5400000000000046        0.020000000000005406     6.999999999999996
0                         0.5600000000000002       5
0.020000000000004403      0.5600000000000004       5.000105233429335
0.5600000000000045        0                        6.999999999999999
0.5600000000000046        0.020000000000005607     6.9999999999999964
0                         0.5800000000000002       5
0.020000000000004205      0.5800000000000003       5.000079221724759
0.5800000000000043        0                        6.999999999999999
0.5800000000000042        0.020000000000005805     7.000000000000001
0                         0.6000000000000002       5
0.020000000000004004      0.6000000000000003       5.000059724236249
0.6000000000000041        0                        6.999999999999999
0.600000000000004         0.020000000000006006     6.999999999999999
0                         0.6200000000000002       5
0.020000000000003803      0.6200000000000003       5.000045085385166
0.6200000000000039        0                        6.999999999999999
0.620000000000004         0.020000000000006207     6.9999999999999964
0                         0.6400000000000002       5
0.020000000000003605      0.6400000000000002       5.000034077380057
0.6400000000000037        0                        6.999999999999999
0.6400000000000037        0.020000000000006405     6.999999999999997
0                         0.6600000000000003       5
0.020000000000003404      0.6600000000000004       5.000025787609237
0.6600000000000035        0                        6.999999999999999
0.6600000000000034        0.020000000000006606     7.000000000000012
0                         0.6800000000000003       5
0.020000000000003203      0.6800000000000004       5.000019536295583
0.6800000000000033        0                        6.999999999999999
0.6800000000000034        0.0200000000000068       6.999999999999935
0                         0.7000000000000003       5
0.020000000000003         0.7000000000000004       5.000014816092064
0.7000000000000031        0                        6.999999999999999
0.7000000000000028        0.020000000000007002     7.000000000000394
0                         0.7200000000000003       5
0.020000000000002804      0.7200000000000004       5.000011247643089
0.7200000000000029        0                        6.999999999999999
0.7200000000000029        0.020000000000007213     6.999999999997581
0                         0.7400000000000003       5
0.020000000000002603      0.7400000000000005       5.000008546803426
0.7400000000000027        0                        6.999999999999999
0.7400000000000027        0.020000000000007408     7.0000000000146505
0                         0.7600000000000003       5
0.0200000000000024        0.7600000000000005       5.000006500395856
0.7600000000000025        0                        6.999999999999999
0.7600000000000023        0.02000000000000761      6.99999999990875
0                         0.7800000000000004       5
0.020000000000002204      0.7800000000000004       5.000004948241015
0.7800000000000022        0                        6.999999999999999
0.780000000000002         0.020000000000007807     7.000000000551687
0                         0.8000000000000004       5
0.020000000000002002      0.8000000000000006       5.000003769818504
0.800000000000002         0                        6.999999999999999
0.800000000000002         0.020000000000008015     6.999999996446444
0                         0.8200000000000004       5
0.0200000000000018        0.8200000000000004       5.000002874340405
0.8200000000000018        0                        6.999999999999999
0.8200000000000018        0.02000000000000821      7.000000021128511
0                         0.8400000000000004       5
0.020000000000001603      0.8400000000000004       5.000002195035556
0.8400000000000016        0                        6.999999999999999
0.8400000000000016        0.020000000000008407     6.999999854309497
0                         0.8600000000000004       5
0.020000000000001402      0.8600000000000004       5.00000169151648
0.8600000000000014        0                        6.999999999999999
0.8600000000000014        0.020000000000008608     7.0000008158630855
0                         0.8800000000000004       5
0.0200000000000012        0.8800000000000004       5.000001643774906
0.8800000000000012        0                        6.999999999999999
0.8800000000000012        0.020000000000008816     6.999993466295503
0                         0.9000000000000005       5
0.020000000000001         0.9000000000000005       5.000004927500363
0.900000000000001         0                        6.999999999999999
0.9000000000000008        0.02000000000000901      7.000030386225013
0                         0.9200000000000005       5
0.020000000000000802      0.9200000000000005       5.000073967889711
0.9200000000000008        0                        6.999999999999999
0.9200000000000006        0.02000000000000921      6.999653734146361
0                         0.9400000000000005       5
0.0200000000000006        0.9400000000000005       5.000892558381259
0.9400000000000006        0                        6.999999999999999
0.9400000000000005        0.02000000000000941      7.000807057318166
0                         0.9600000000000005       5
0.0200000000000004        0.9600000000000006       5.015650106842286
0.9600000000000004        0                        6.999999999999999
0.9600000000000004        0.020000000000009618     6.974678883334693
0                         0.9800000000000005       5
0.020000000000000195      0.9800000000000004       5.223009157114387
0.9800000000000002        0                        6.999999999999999
0.9800000000000002        0.02000000000000981      6.891367330255916
0                         1                        7.5
0.02                      1                        10
1                         0                        4
1                         0.02000000000001001      1
0.040000000000000195      0.9800000000000006       5.322564404890336
0.04                      1                        10
0.9800000000000002        0.04000000000000961      6.56035562156804
1                         0.040000000000009805     1
0.06000000000000019       0.9800000000000008       5.341020466345035
0.06                      1                        10
0.9800000000000004        0.06000000000000942      6.395366430971316
1                         0.0600000000000096       1
0.08000000000000018       0.9800000000000003       5.345114151854723
0.07999999999999999       1                        10
0.9800000000000002        0.0800000000000092       6.305864034762643
1                         0.0800000000000094       1
0.10000000000000016       0.9800000000000005       5.346131548888228
0.09999999999999998       1                        10
0.9800000000000004        0.10000000000000901      6.25408310984032
1                         0.10000000000000919      1
0.12000000000000015       0.9800000000000006       5.346461441607297
0.11999999999999997       1                        10
0.9800000000000001        0.12000000000000881      6.2226444676104595
1                         0.12000000000000899      1
0.14000000000000012       0.9800000000000003       5.346710070924007
0.13999999999999996       1                        10
0.9800000000000002        0.14000000000000862      6.202847807476038
1                         0.14000000000000878      1
0.16000000000000011       0.9800000000000004       5.347123960484762
0.15999999999999995       1                        10
0.9800000000000002        0.1600000000000084       6.190027265520339
1                         0.16000000000000858      1
0.1800000000000001        0.9800000000000004       5.347939666150077
0.17999999999999994       1                        10
0.9800000000000002        0.1800000000000082       6.181539220099251
1                         0.18000000000000838      1
0.2000000000000001        0.9800000000000004       5.349511821763571
0.19999999999999993       1                        10
0.9800000000000002        0.20000000000000806      6.1758189820925375
1                         0.20000000000000817      1
0.22000000000000008       0.9800000000000004       5.352399204988875
0.21999999999999992       1                        10
0.9800000000000003        0.22000000000000774      6.17190756706678
1                         0.22000000000000797      1
0.24000000000000007       0.9800000000000004       5.357443982503022
0.2399999999999999        1                        10
0.9800000000000003        0.2400000000000076       6.1692004027060765
1                         0.24000000000000776      1
0.26000000000000006       0.9800000000000004       5.365840058800103
0.2599999999999999        1                        10
0.9800000000000004        0.26000000000000734      6.167307433994787
1                         0.26000000000000756      1
0.2800000000000001        0.9800000000000004       5.3791712996309275
0.2799999999999999        1                        10
0.98                      0.2800000000000072       6.165972128748395
1                         0.28000000000000735      1
0.3                       0.9800000000000004       5.399394118097042
0.29999999999999993       1                        10
0.9800000000000003        0.300000000000007        6.165023024580353
1                         0.30000000000000715      1
0.3200000000000001        0.9800000000000004       5.428740589619294
0.31999999999999995       1                        10
0.9800000000000002        0.3200000000000068       6.164343934503965
1                         0.32000000000000695      1
0.3400000000000001        0.9800000000000004       5.469529175607348
0.33999999999999997       1                        10
0.9800000000000003        0.34000000000000663      6.163855193656257
1                         0.34000000000000674      1
0.3600000000000001        0.9800000000000004       5.523889751976461
0.36                      1                        10
0.9800000000000004        0.3600000000000064       6.16350161787884
1                         0.36000000000000654      1
0.3800000000000001        0.9800000000000004       5.593434125764139
0.38                      1                        10
0.9800000000000002        0.3800000000000062       6.163244638017301
1                         0.38000000000000633      1
0.40000000000000013       0.9800000000000004       5.678925746853134
0.4                       1                        10
0.9800000000000003        0.400000000000006        6.163057084725778
1                         0.40000000000000613      1
0.42000000000000015       0.9800000000000004       5.780014985765298
0.42000000000000004       1                        10
0.9800000000000003        0.4200000000000058       6.162919685310788
1                         0.4200000000000059       1
0.44000000000000017       0.9800000000000004       5.895103113157424
0.44000000000000006       1                        10
0.9800000000000006        0.4400000000000055       6.162818683490739
1                         0.4400000000000057       1
0.4600000000000002        0.9800000000000004       6.021377480657389
0.4600000000000001        1                        10
0.9800000000000001        0.4600000000000054       6.162744205673903
1                         0.4600000000000055       1
0.4800000000000002        0.9800000000000004       6.155026569333524
0.4800000000000001        1                        10
0.9800000000000005        0.4800000000000052       6.1626891294867745
1                         0.4800000000000053       1
0.5000000000000002        0.9800000000000003       6.2916054139292745
0.5000000000000001        1                        10
0.9800000000000004        0.500000000000005        6.162648293826636
1                         0.5000000000000051       1
0.5200000000000002        0.9800000000000005       6.426490033135896
0.5200000000000001        1                        10
0.9800000000000002        0.5200000000000048       6.162617943358369
1                         0.5200000000000049       1
0.5400000000000003        0.9800000000000005       6.555342582446764
0.5400000000000001        1                        10
0.9800000000000004        0.5400000000000046       6.162595335330103
1                         0.5400000000000047       1
0.5600000000000003        0.9800000000000006       6.674510889240316
0.5600000000000002        1                        10
0.9800000000000004        0.5600000000000042       6.162578459634489
1                         0.5600000000000045       1
0.5800000000000003        0.9800000000000005       6.781304949502039
0.5800000000000002        1                        10
0.9800000000000004        0.5800000000000042       6.162565838425515
1                         0.5800000000000043       1
0.6000000000000003        0.9800000000000002       6.87412234378708
0.6000000000000002        1                        10
0.9800000000000004        0.600000000000004        6.16255638197187
1                         0.6000000000000041       1
0.6200000000000003        0.9800000000000004       6.952425798721773
0.6200000000000002        1                        10
0.9800000000000004        0.6200000000000038       6.162549284479213
1                         0.6200000000000039       1
0.6400000000000003        0.9800000000000001       7.01660155126261
0.6400000000000002        1                        10
0.9800000000000004        0.6400000000000036       6.162543948447955
1                         0.6400000000000037       1
0.6600000000000004        0.98                     7.067741988083994
0.6600000000000003        1                        10
0.9800000000000004        0.6600000000000034       6.162539929464442
1                         0.6600000000000035       1
0.6800000000000004        0.9800000000000004       7.107399158289248
0.6800000000000003        1                        10
0.9800000000000004        0.6800000000000032       6.1625368956241395
1                         0.6800000000000033       1
0.7000000000000003        0.9800000000000003       7.137349270099102
0.7000000000000003        1                        10
0.9800000000000004        0.7000000000000031       6.162534597367499
1                         0.7000000000000031       1
0.7200000000000005        0.9800000000000004       7.159396048055391
0.7200000000000003        1                        10
0.9800000000000004        0.7200000000000029       6.162532844576524
1                         0.7200000000000029       1
0.7400000000000003        0.9800000000000006       7.175226993408863
0.7400000000000003        1                        10
0.9800000000000004        0.7400000000000027       6.162531488467312
1                         0.7400000000000027       1
0.7600000000000003        0.9800000000000003       7.186324436853004
0.7600000000000003        1                        10
0.9800000000000004        0.7600000000000025       6.1625304062014346
1                         0.7600000000000025       1
0.7800000000000006        0.9800000000000003       7.1939246639449825
0.7800000000000004        1                        10
0.9800000000000004        0.7800000000000022       6.162529486282948
1                         0.7800000000000022       1
0.8000000000000004        0.9800000000000003       7.19901380285448
0.8000000000000004        1                        10
0.9800000000000004        0.800000000000002        6.162528612686386
1                         0.800000000000002        1
0.8200000000000004        0.9800000000000001       7.202347981563261
0.8200000000000004        1                        10
0.9800000000000004        0.8200000000000021       6.162527645780269
1                         0.8200000000000018       1
0.8400000000000004        0.9800000000000002       7.204486613034357
0.8400000000000004        1                        10
0.9800000000000003        0.8400000000000016       6.162526393124485
1                         0.8400000000000016       1
0.8600000000000004        0.9800000000000002       7.205827790585313
0.8600000000000004        1                        10
0.9800000000000003        0.8600000000000014       6.16252461297807
1                         0.8600000000000014       1
0.8800000000000004        0.9800000000000004       7.206640067669192
0.8800000000000004        1                        10
0.9800000000000008        0.8800000000000014       6.162521527147873
1                         0.8800000000000012       1
0.9000000000000005        0.9800000000000004       7.206971816135459
0.9000000000000005        1                        10
0.9800000000000005        0.900000000000001        6.162521177562524
1                         0.900000000000001        1
0.9200000000000005        0.9800000000000002       7.206402710189036
0.9200000000000005        1                        10
0.9800000000000005        0.9200000000000008       6.162470926110518
1                         0.9200000000000008       1
0.9400000000000005        0.9800000000000002       7.1973729026423
0.9400000000000005        1                        10
0.9800000000000005        0.9400000000000006       6.163222089490698
1                         0.9400000000000006       1
0.9600000000000005        0.9800000000000002       7.1514109586639165
0.9600000000000005        1                        10
0.9800000000000004        0.9600000000000004       6.156305076736819
1                         0.9600000000000004       1
0.9800000000000005        0.98                     6.488612211479555
0.9800000000000005        1                        10
1                         0.9800000000000002       1
1                         1                        5.5
0.040000000000009424      0.040000000000000396     6.542297075138787
0.040000000000009216      0.06000000000000038      6.144894693689878
0.06000000000000922       0.0400000000000006       6.868822109953695
0.04000000000000901       0.08000000000000039      5.822836477007007
0.060000000000009025      0.06000000000000059      6.650342106838527
0.08000000000000902       0.040000000000000785     6.963570486477786
0.04000000000000882       0.10000000000000035      5.585499798785218
0.06000000000000884       0.08000000000000056      6.370765149302049
0.08000000000000881       0.060000000000000754     6.879506579365311
0.10000000000000882       0.040000000000000986     6.98986991020604
0.040000000000008626      0.12000000000000031      5.416124693355356
0.060000000000008644      0.10000000000000053      6.094094936010935
0.08000000000000865       0.08000000000000074      6.726058246988779
0.10000000000000864       0.060000000000000955     6.961294031842233
0.12000000000000863       0.04000000000000117      6.997158450675582
0.04000000000000842       0.14000000000000026      5.296470964051302
0.060000000000008435      0.12000000000000052      5.851926956060931
0.08000000000000845       0.1000000000000007       6.520226565719246
0.10000000000000846       0.08000000000000093      6.895499314327002
0.12000000000000845       0.06000000000000115      6.987958361585408
0.14000000000000842       0.04000000000000136      6.999194852266257
0.04000000000000824       0.16000000000000028      5.212049424343903
0.06000000000000827       0.14000000000000049      5.653284669076573
0.08000000000000827       0.12000000000000069      6.293373804429349
0.10000000000000828       0.1000000000000009       6.7822120573446485
0.1200000000000083        0.08000000000000113      6.963044118600981
0.14000000000000826       0.060000000000001344     6.996310888081067
0.1600000000000082        0.04000000000000157      6.999769631365817
0.04000000000000804       0.18000000000000027      5.152335450044372
0.06000000000000806       0.16000000000000048      5.4962416935642295
0.08000000000000805       0.1400000000000007       6.071457310367169
0.10000000000000811       0.12000000000000084      6.626075272211981
0.12000000000000809       0.10000000000000109      6.911353070386907
0.1400000000000081        0.08000000000000128      6.987504722377359
0.16000000000000805       0.06000000000000153      6.99887798681636
0.18000000000000804       0.04000000000000176      6.9999334976051815
0.04000000000000785       0.20000000000000023      5.109924193091992
0.06000000000000788       0.18000000000000044      5.374773091237392
0.08000000000000793       0.16000000000000064      5.870073320780027
0.10000000000000787       0.14000000000000085      6.44231329393334
0.12000000000000789       0.12000000000000104      6.825156011206386
0.14000000000000792       0.10000000000000127      6.966456118933695
0.16000000000000794       0.08000000000000149      6.995890962208425
0.18000000000000788       0.06000000000000173      6.999659791471314
0.2000000000000079        0.040000000000001965     6.99998064823821
0.04000000000000766       0.22000000000000025      5.079660995471937
0.06000000000000767       0.20000000000000043      5.282063597762724
0.0800000000000077        0.1800000000000006       5.696110296117915
0.10000000000000772       0.1600000000000008       6.248350686090124
0.12000000000000773       0.140000000000001        6.704282216805357
0.14000000000000773       0.12000000000000124      6.925534528051204
0.1600000000000077        0.10000000000000145      6.987916331946317
0.1800000000000077        0.08000000000000168      6.998672593653484
0.20000000000000773       0.06000000000000191      6.999896922577756
0.22000000000000763       0.04000000000000216      6.999994328491242
0.04000000000000745       0.2400000000000002       5.057963256125954
0.06000000000000748       0.2200000000000004       5.211881034993902
0.08000000000000751       0.2000000000000006       5.550784762492014
0.10000000000000753       0.18000000000000077      6.058608034236505
0.12000000000000755       0.16000000000000097      6.555673452563183
0.14000000000000754       0.1400000000000012       6.858634016786744
0.1600000000000075        0.12000000000000141      6.9703754252637316
0.18000000000000754       0.10000000000000164      6.995792391872629
0.20000000000000748       0.08000000000000188      6.999576169915546
0.22000000000000744       0.06000000000000211      6.999968752671928
0.24000000000000746       0.04000000000000235      6.9999983272279875
0.04000000000000726       0.26000000000000023      5.042334684960815
0.060000000000007304      0.24000000000000038      5.1590159806235025
0.08000000000000733       0.22000000000000058      5.432191940487931
0.10000000000000737       0.20000000000000076      5.882801169715397
0.12000000000000739       0.18000000000000094      6.3900287266028
0.14000000000000737       0.16000000000000117      6.763694226811177