% Model:              conv_diff.mph
% Version:            COMSOL 5.6.0.341
% Date:               Apr 6 2022, 21:03
% Dimension:          2
% Nodes:              10201
% Expressions:        1
% Description:        因变量
% Length unit:        null
% x                       y                        u
0                         0                        6
0.00999999999999912       0                        6.999999999999999
0                         0.01                     5
0.00999999999999913       0.009999999999999992     6.505274437266643
0                         0.02                     5
0.009999999999999138      0.01999999999999999      5.804673142517809
0.01999999999999913       0                        6.999999999999999
0.01999999999999914       0.009999999999999981     7.012105619363241
0                         0.03                     5
0.00999999999999915       0.029999999999999992     5.3871410419899375
0.02999999999999914       0                        6.999999999999999
0.029999999999999152      0.009999999999999974     7.0124407687970445
0                         0.039999999999999994     5
0.009999999999999159      0.03999999999999999      5.160113142241996
0.03999999999999915       0                        6.999999999999999
0.039999999999999154      0.009999999999999966     6.999624227763473
0                         0.04999999999999999      5
0.009999999999999166      0.04999999999999998      5.050005053125051
0.049999999999999156      0                        6.999999999999999
0.04999999999999917       0.009999999999999957     6.999380411020631
0                         0.059999999999999984     5
0.009999999999999176      0.05999999999999998      5.004810670410155
0.059999999999999165      0                        6.999999999999999
0.05999999999999918       0.009999999999999946     7.00001095703414
0                         0.06999999999999998      5
0.009999999999999181      0.06999999999999998      4.991474176646135
0.06999999999999917       0                        6.999999999999999
0.06999999999999917       0.00999999999999994      7.0000383157812465
0                         0.07999999999999997      5
0.009999999999999192      0.07999999999999996      4.991174983111931
0.07999999999999918       0                        6.999999999999999
0.0799999999999992        0.009999999999999929     7.00000004008185
0                         0.08999999999999997      5
0.0099999999999992        0.08999999999999996      4.994525584031528
0.08999999999999919       0                        6.999999999999999
0.0899999999999992        0.009999999999999924     6.99999736333774
0                         0.09999999999999996      5
0.00999999999999921       0.09999999999999995      4.997672455982294
0.0999999999999992        0                        6.999999999999999
0.09999999999999921       0.009999999999999912     6.999999940248259
0                         0.10999999999999996      5
0.009999999999999218      0.10999999999999996      4.999580839220745
0.10999999999999921       0                        6.999999999999999
0.10999999999999922       0.009999999999999907     7.000000193103344
0                         0.11999999999999995      5
0.009999999999999227      0.11999999999999994      5.000384997998284
0.11999999999999922       0                        6.999999999999999
0.1199999999999992        0.009999999999999894     7.000000008895894
0                         0.12999999999999995      5
0.009999999999999235      0.12999999999999995      5.0005258667036605
0.12999999999999923       0                        6.999999999999999
0.12999999999999923       0.009999999999999887     6.9999999852870305
0                         0.13999999999999996      5
0.009999999999999242      0.13999999999999996      5.000386911445778
0.13999999999999924       0                        6.999999999999999
0.13999999999999924       0.009999999999999877     6.999999998955959
0                         0.14999999999999997      5
0.009999999999999253      0.14999999999999997      5.00019856682959
0.14999999999999925       0                        6.999999999999999
0.1499999999999993        0.009999999999999867     7.000000001150779
0                         0.15999999999999998      5
0.009999999999999261      0.15999999999999998      5.0000590226723185
0.15999999999999925       0                        6.999999999999999
0.1599999999999993        0.00999999999999986      7.000000000112078
0                         0.16999999999999998      5
0.00999999999999927       0.16999999999999998      4.999986333882816
0.16999999999999926       0                        6.999999999999999
0.16999999999999926       0.009999999999999848     6.999999999908392
0                         0.18                     5
0.009999999999999279      0.18                     4.999963803352863
0.17999999999999927       0                        6.999999999999999
0.1799999999999993        0.009999999999999842     6.999999999988487
0                         0.19                     5
0.009999999999999286      0.19                     4.999967895838994
0.18999999999999928       0                        6.999999999999999
0.18999999999999928       0.00999999999999983      7.000000000007376
0                         0.2                      5
0.0099999999999993        0.2                      4.99998063716007
0.1999999999999993        0                        6.999999999999999
0.1999999999999993        0.009999999999999825     7.00000000000115
0                         0.21000000000000002      5
0.009999999999999308      0.21000000000000002      4.999992272339492
0.2099999999999993        0                        6.999999999999999
0.20999999999999927       0.009999999999999816     6.9999999999994005
0                         0.22000000000000003      5
0.009999999999999315      0.22000000000000006      4.9999994686285225
0.2199999999999993        0                        6.999999999999999
0.2199999999999993        0.009999999999999806     6.999999999999884
0                         0.23000000000000004      5
0.009999999999999322      0.23000000000000004      5.000002468118358
0.22999999999999932       0                        6.999999999999999
0.22999999999999932       0.009999999999999797     7.000000000000048
0                         0.24000000000000005      5
0.009999999999999332      0.24000000000000005      5.0000027998748635
0.23999999999999932       0                        6.999999999999999
0.23999999999999932       0.009999999999999789     7.000000000000011
0                         0.25000000000000006      5
0.009999999999999344      0.25000000000000006      5.000001970202001
0.24999999999999933       0                        6.999999999999999
0.24999999999999933       0.00999999999999978      6.9999999999999964
0                         0.26000000000000006      5
0.00999999999999935       0.26000000000000006      5.000000965356293
0.25999999999999934       0                        6.999999999999999
0.25999999999999934       0.009999999999999771     6.999999999999999
0                         0.2700000000000001       5
0.009999999999999357      0.2700000000000001       5.000000233789188
0.26999999999999935       0                        6.999999999999999
0.26999999999999935       0.009999999999999763     7.000000000000002
0                         0.2800000000000001       5
0.009999999999999367      0.2800000000000001       4.9999998604136575
0.27999999999999936       0                        6.999999999999999
0.27999999999999936       0.009999999999999754     7.000000000000001
0                         0.2900000000000001       5
0.009999999999999376      0.29000000000000004      4.9999997575335255
0.28999999999999937       0                        6.999999999999999
0.2899999999999994        0.009999999999999745     6.999999999999998
0                         0.3000000000000001       5
0.009999999999999384      0.30000000000000016      4.999999798412494
0.2999999999999994        0                        6.999999999999999
0.29999999999999943       0.009999999999999737     6.999999999999997
0                         0.3100000000000001       5
0.009999999999999391      0.31000000000000016      4.999999883481047
0.3099999999999994        0                        6.999999999999999
0.30999999999999933       0.009999999999999728     6.999999999999999
0                         0.3200000000000001       5
0.009999999999999402      0.3200000000000001       4.999999957641866
0.3199999999999994        0                        6.999999999999999
0.31999999999999934       0.00999999999999972      6.999999999999997
0                         0.3300000000000001       5
0.00999999999999941       0.3300000000000001       5.000000002275715
0.3299999999999994        0                        6.999999999999999
0.3299999999999994        0.00999999999999971      7
0                         0.34000000000000014      5
0.009999999999999419      0.34000000000000014      5.000000019781659
0.3399999999999994        0                        6.999999999999999
0.3399999999999994        0.009999999999999702     6.999999999999997
0                         0.35000000000000014      5
0.009999999999999431      0.3500000000000001       5.000000020280767
0.3499999999999994        0                        6.999999999999999
0.34999999999999953       0.009999999999999693     7
0                         0.36000000000000015      5
0.009999999999999438      0.36000000000000004      5.000000013636253
0.35999999999999943       0                        6.999999999999999
0.35999999999999954       0.009999999999999683     6.999999999999998
0                         0.37000000000000016      5
0.009999999999999447      0.37000000000000016      5.000000006293614
0.36999999999999944       0                        6.999999999999999
0.36999999999999955       0.009999999999999674     7
0                         0.38000000000000017      5
0.009999999999999454      0.38000000000000017      5.000000001135729
0.37999999999999945       0                        6.999999999999999
0.37999999999999956       0.009999999999999665     6.9999999999999964
0                         0.3900000000000002       5
0.009999999999999464      0.3900000000000002       4.999999998615904
0.38999999999999946       0                        6.999999999999999
0.38999999999999957       0.009999999999999657     6.999999999999998
0                         0.4000000000000002       5
0.009999999999999475      0.4000000000000002       4.999999998035523
0.39999999999999947       0                        6.999999999999999
0.3999999999999995        0.009999999999999648     6.999999999999997
0                         0.4100000000000002       5
0.009999999999999482      0.4100000000000002       4.9999999984547845
0.4099999999999995        0                        6.999999999999999
0.40999999999999953       0.00999999999999964      6.999999999999998
0                         0.4200000000000002       5
0.009999999999999488      0.42000000000000015      4.9999999991488275
0.4199999999999995        0                        6.999999999999999
0.41999999999999954       0.00999999999999963      6.999999999999999
0                         0.4300000000000002       5
0.009999999999999499      0.43000000000000027      4.999999999724444
0.4299999999999995        0                        6.999999999999999
0.4299999999999995        0.009999999999999622     6.999999999999999
0                         0.4400000000000002       5
0.009999999999999508      0.4400000000000003       5.000000000057632
0.4399999999999995        0                        6.999999999999999
0.43999999999999956       0.009999999999999613     7.000000000000001
0                         0.45000000000000023      5
0.009999999999999516      0.45000000000000023      5.0000000001778515
0.4499999999999995        0                        6.999999999999999
0.44999999999999957       0.009999999999999605     6.999999999999999
0                         0.46000000000000024      5
0.009999999999999523      0.4600000000000002       5.000000000168658
0.4599999999999995        0                        6.999999999999999
0.4599999999999996        0.009999999999999596     6.999999999999997
0                         0.47000000000000025      5
0.009999999999999534      0.4700000000000002       5.0000000001082885
0.46999999999999953       0                        6.999999999999999
0.46999999999999953       0.009999999999999587     7.000000000000001
0                         0.48000000000000026      5
0.009999999999999542      0.48000000000000015      5.0000000000466365
0.47999999999999954       0                        6.999999999999999
0.47999999999999954       0.009999999999999579     6.999999999999999
0                         0.49000000000000027      5
0.009999999999999551      0.49000000000000027      5.00000000000506
0.48999999999999955       0                        6.999999999999999
0.48999999999999955       0.00999999999999957      6.999999999999999
0                         0.5000000000000002       5
0.009999999999999561      0.5000000000000002       4.999999999985834
0.49999999999999956       0                        6.999999999999999
0.49999999999999956       0.009999999999999561     6.999999999999996
0                         0.5100000000000002       5
0.009999999999999567      0.5100000000000002       4.999999999982451
0.5099999999999996        0                        6.999999999999999
0.5099999999999998        0.009999999999999551     6.999999999999999
0                         0.5200000000000002       5
0.009999999999999579      0.5200000000000002       4.999999999986888
0.5199999999999996        0                        6.999999999999999
0.5199999999999996        0.009999999999999542     6.999999999999999
0                         0.5300000000000002       5
0.009999999999999587      0.5300000000000002       4.999999999993145
0.5299999999999996        0                        6.999999999999999
0.5299999999999998        0.009999999999999534     7.000000000000002
0                         0.5400000000000003       5
0.009999999999999596      0.5400000000000003       4.999999999998085
0.5399999999999996        0                        6.999999999999999
0.5399999999999996        0.009999999999999525     6.999999999999999
0                         0.5500000000000003       5
0.009999999999999605      0.5500000000000002       5.00000000000082
0.5499999999999996        0                        6.999999999999999
0.5499999999999998        0.009999999999999516     6.9999999999999964
0                         0.5600000000000003       5
0.009999999999999613      0.5600000000000002       5.000000000001706
0.5599999999999996        0                        6.999999999999999
0.5599999999999996        0.009999999999999508     6.999999999999999
0                         0.5700000000000003       5
0.009999999999999622      0.5700000000000003       5.0000000000015135
0.5699999999999996        0                        6.999999999999999
0.5699999999999998        0.009999999999999499     7.000000000000002
0                         0.5800000000000003       5
0.00999999999999963       0.5800000000000003       5.0000000000009255
0.5799999999999996        0                        6.999999999999999
0.5799999999999996        0.009999999999999487     6.999999999999995
0                         0.5900000000000003       5
0.00999999999999964       0.5900000000000003       5.000000000000369
0.5899999999999996        0                        6.999999999999999
0.5899999999999999        0.009999999999999482     7
0                         0.6000000000000003       5
0.009999999999999648      0.6000000000000003       5.000000000000009
0.5999999999999996        0                        6.999999999999999
0.5999999999999996        0.009999999999999473     7.000000000000001
0                         0.6100000000000003       5
0.009999999999999657      0.6100000000000003       4.999999999999849
0.6099999999999997        0                        6.999999999999999
0.6099999999999999        0.009999999999999464     7.000000000000002
0                         0.6200000000000003       5
0.009999999999999665      0.6200000000000003       4.999999999999834
0.6199999999999997        0                        6.999999999999999
0.6199999999999997        0.009999999999999456     7.000000000000002
0                         0.6300000000000003       5
0.009999999999999674      0.6300000000000003       4.999999999999884
0.6299999999999997        0                        6.999999999999999
0.6299999999999999        0.009999999999999443     7.000000000000002
0                         0.6400000000000003       5
0.009999999999999683      0.6400000000000003       4.999999999999943
0.6399999999999997        0                        6.999999999999999
0.6399999999999997        0.009999999999999438     6.999999999999998
0                         0.6500000000000004       5
0.009999999999999693      0.6500000000000004       4.999999999999987
0.6499999999999997        0                        6.999999999999999
0.6499999999999999        0.009999999999999428     6.999999999999997
0                         0.6600000000000004       5
0.009999999999999698      0.6600000000000004       5.000000000000012
0.6599999999999997        0                        6.999999999999999
0.6599999999999997        0.009999999999999419     7.0000000000000036
0                         0.6700000000000004       5
0.00999999999999971       0.6700000000000004       5.000000000000017
0.6699999999999997        0                        6.999999999999999
0.6699999999999999        0.009999999999999414     6.999999999999997
0                         0.6800000000000004       5
0.00999999999999972       0.6800000000000004       5.000000000000012
0.6799999999999997        0                        6.999999999999999
0.6799999999999997        0.009999999999999402     6.999999999999996
0                         0.6900000000000004       5
0.009999999999999728      0.6900000000000004       5.00000000000001
0.6899999999999997        0                        6.999999999999999
0.69                      0.009999999999999393     6.999999999999999
0                         0.7000000000000004       5
0.009999999999999737      0.7000000000000005       5.000000000000004
0.6999999999999997        0                        6.999999999999999
0.6999999999999997        0.009999999999999384     7
0                         0.7100000000000004       5
0.009999999999999745      0.7100000000000005       5
0.7099999999999997        0                        6.999999999999999
0.71                      0.009999999999999376     7.000000000000001
0                         0.7200000000000004       5
0.009999999999999754      0.7200000000000004       4.999999999999997
0.7199999999999998        0                        6.999999999999999
0.7199999999999998        0.009999999999999367     7
0                         0.7300000000000004       5
0.009999999999999763      0.7300000000000004       4.999999999999997
0.7299999999999998        0                        6.999999999999999
0.73                      0.009999999999999355     7.000000000000001
0                         0.7400000000000004       5
0.009999999999999771      0.7400000000000004       4.999999999999998
0.7399999999999998        0                        6.999999999999999
0.7399999999999998        0.00999999999999935      7
0                         0.7500000000000004       5
0.00999999999999978       0.7500000000000004       5
0.7499999999999998        0                        6.999999999999999
0.75                      0.009999999999999341     6.9999999999999964
0                         0.7600000000000005       5
0.009999999999999789      0.7600000000000005       4.999999999999999
0.7599999999999998        0                        6.999999999999999
0.7599999999999998        0.009999999999999332     7.000000000000001
0                         0.7700000000000005       5
0.009999999999999797      0.7700000000000005       5
0.7699999999999998        0                        6.999999999999999
0.7699999999999998        0.009999999999999324     7
0                         0.7800000000000005       5
0.009999999999999806      0.7800000000000005       4.999999999999998
0.7799999999999998        0                        6.999999999999999
0.7799999999999996        0.009999999999999312     6.999999999999999
0                         0.7900000000000005       5
0.009999999999999813      0.7900000000000004       5.000000000000001
0.7899999999999998        0                        6.999999999999999
0.7899999999999998        0.009999999999999305     7
0                         0.8000000000000005       5
0.009999999999999825      0.8000000000000004       5.000000000000001
0.7999999999999998        0                        6.999999999999999
0.7999999999999996        0.009999999999999296     6.999999999999997
0                         0.8100000000000005       5
0.009999999999999832      0.8100000000000005       5.000000000000001
0.8099999999999998        0                        6.999999999999999
0.8099999999999998        0.00999999999999929      7.000000000000006
0                         0.8200000000000005       5
0.009999999999999842      0.8200000000000005       5
0.8199999999999998        0                        6.999999999999999
0.8199999999999997        0.009999999999999282     7.000000000000015
0                         0.8300000000000005       5
0.009999999999999851      0.8300000000000006       5.000000000000001
0.8299999999999998        0                        6.999999999999999
0.8299999999999997        0.00999999999999927      6.999999999999747
0                         0.8400000000000005       5
0.00999999999999986       0.8400000000000006       4.999999999999999
0.8399999999999999        0                        6.999999999999999
0.8399999999999996        0.009999999999999261     7.000000000000896
0                         0.8500000000000005       5
0.009999999999999868      0.8500000000000006       5.000000000000036
0.8499999999999999        0                        6.999999999999999
0.8499999999999999        0.009999999999999253     7.000000000001502
0                         0.8600000000000005       5
0.009999999999999877      0.8600000000000005       5.000000000000078
0.8599999999999999        0                        6.999999999999999
0.8599999999999997        0.009999999999999244     6.999999999968948
0                         0.8700000000000006       5
0.009999999999999886      0.8700000000000006       4.999999999998301
0.8699999999999999        0                        6.999999999999999
0.8699999999999999        0.009999999999999235     7.000000000129514
0                         0.8800000000000006       5
0.009999999999999894      0.8800000000000006       5.00000000000119
0.8799999999999999        0                        6.999999999999999
0.8799999999999997        0.009999999999999223     7.000000000110312
0                         0.8900000000000006       5
0.009999999999999903      0.8900000000000006       5.000000000074334
0.8899999999999999        0                        6.999999999999999
0.8899999999999999        0.009999999999999214     6.999999995912472
0                         0.9000000000000006       5
0.009999999999999912      0.9000000000000006       4.999999999739426
0.8999999999999999        0                        6.999999999999999
0.8999999999999997        0.00999999999999921      7.000000019698106
0                         0.9100000000000006       5
0.00999999999999992       0.9100000000000006       4.999999997159908
0.9099999999999999        0                        6.999999999999999
0.91                      0.0099999999999992       7.000000004856226
0                         0.9200000000000006       5
0.009999999999999929      0.9200000000000005       5.000000021077996
0.9199999999999999        0                        6.999999999999999
0.9199999999999998        0.009999999999999192     6.999999394545906
0                         0.9300000000000006       5
0.00999999999999994       0.9300000000000005       5.000000085697087
0.9299999999999999        0                        6.999999999999999
0.93                      0.009999999999999181     7.000003389297464
0                         0.9400000000000006       5
0.009999999999999945      0.9400000000000006       4.999998583350101
0.94                      0                        6.999999999999999
0.94                      0.009999999999999173     6.999998997243462
0                         0.9500000000000006       5
0.009999999999999957      0.9500000000000007       4.999999408609323
0.95                      0                        6.999999999999999
0.95                      0.009999999999999164     6.999895236259139
0                         0.9600000000000006       5
0.009999999999999962      0.9600000000000007       5.000094909859129
0.96                      0                        6.999999999999999
0.96                      0.009999999999999159     7.000613194016214
0                         0.9700000000000006       5
0.009999999999999974      0.9700000000000008       4.999701920216084
0.97                      0                        6.999999999999999
0.97                      0.00999999999999915      7.001687264395271
0                         0.9800000000000006       5
0.009999999999999983      0.9800000000000006       4.991788280985764
0.98                      0                        6.999999999999999
0.98                      0.009999999999999138     6.937217097026103
0                         0.9900000000000007       5
0.009999999999999992      0.9900000000000007       5.069534315055576
0.99                      0                        6.999999999999999
0.99                      0.00999999999999913      7.692604691153855
0                         1                        7.5
0.01                      1                        10
1                         0                        4
1                         0.00999999999999912      1
0.01999999999999999       0.9900000000000007       4.953849325746302
0.02                      1                        10
0.99                      0.01999999999999914      7.99651753309563
1                         0.01999999999999913      1
0.029999999999999992      0.9900000000000007       4.943991170806248
0.03                      1                        10
0.99                      0.029999999999999152     8.171363927796687
1                         0.02999999999999914      1
0.03999999999999997       0.9900000000000008       4.945944117333915
0.039999999999999994      1                        10
0.99                      0.039999999999999154     8.262751228077542
1                         0.03999999999999915      1
0.04999999999999998       0.9900000000000007       4.946397428648175
0.04999999999999999       1                        10
0.99                      0.04999999999999916      8.304878877521487
1                         0.049999999999999156     1
0.05999999999999998       0.9900000000000007       4.946325427083174
0.059999999999999984      1                        10
0.9899999999999999        0.05999999999999917      8.320805468922087
1                         0.059999999999999165     1
0.06999999999999999       0.9900000000000007       4.946298436994595
0.06999999999999998       1                        10
0.99                      0.06999999999999919      8.324561610564734
1                         0.06999999999999917      1
0.07999999999999996       0.9900000000000007       4.946301796692118
0.07999999999999997       1                        10
0.99                      0.0799999999999992       8.323773195308696
1                         0.07999999999999918      1
0.08999999999999996       0.9900000000000004       4.94630362234086
0.08999999999999997       1                        10
0.9900000000000001        0.0899999999999992       8.322026018233057
1                         0.08999999999999919      1
0.09999999999999995       0.9900000000000004       4.946303452113742
0.09999999999999996       1                        10
0.9900000000000001        0.09999999999999921      8.320651934342205
1                         0.0999999999999992       1
0.10999999999999997       0.9900000000000003       4.946303319125933
0.10999999999999996       1                        10
0.9900000000000001        0.10999999999999922      8.319904412410697
1                         0.10999999999999921      1
0.11999999999999994       0.9900000000000004       4.94630332764354
0.11999999999999995       1                        10
0.9900000000000001        0.1199999999999992       8.319634925900253
1                         0.11999999999999922      1
0.12999999999999995       0.9900000000000007       4.946303337797883
0.12999999999999995       1                        10
0.9900000000000001        0.12999999999999923      8.319624010822475
1                         0.12999999999999923      1
0.13999999999999996       0.9900000000000007       4.9463033374306855
0.13999999999999996       1                        10
0.9900000000000001        0.1399999999999993       8.319706378766115
1                         0.13999999999999924      1
0.14999999999999997       0.9900000000000007       4.946303336630531
0.14999999999999997       1                        10
0.9900000000000001        0.1499999999999993       8.319792362648473
1                         0.14999999999999925      1
0.15999999999999998       0.9900000000000007       4.946303336637749
0.15999999999999998       1                        10
0.9900000000000003        0.1599999999999993       8.31984923940262
1                         0.15999999999999925      1
0.16999999999999998       0.9900000000000007       4.946303336701953
0.16999999999999998       1                        10
0.9900000000000004        0.16999999999999926      8.319875491035322
1                         0.16999999999999926      1