% Model:              steadyNS+传热1.mph
% Version:            COMSOL 5.6.0.341
% Date:               Apr 21 2022, 15:10
% Dimension:          2
% Nodes:              2601
% Expressions:        4
% Description:        速度场，x 分量, 速度场，y 分量, 压力, 温度
% Length unit:        null
% x                       y                        u                        v                        p                        T
0                         0                        0                        0                        0.3068356843850695       313.15
0.02000000000001001       0                        0                        0                        0.3067622606538018       333.15
0                         0.019999999999999993     0                        0                        0.30691160149866914      293.15
0.02000000000000981       0.01999999999999998      -7.436497316945098E-4    7.347849098998039E-4     0.30683193784361523      313.22454396921876
0                         0.03999999999999999      0                        0                        0.30707266248810194      293.15
0.02000000000000961       0.03999999999999997      -0.002198537039065541    0.0034417149290813494    0.3069357379489288       304.7131988798451
0.040000000000009805      0                        0                        0                        0.30660676572751505      333.15
0.04000000000000962       0.019999999999999962     -0.003101415894817127    0.0017481558316577263    0.3067089691585147       321.84686615870413
0                         0.05999999999999998      0                        0                        0.3071605618132511       293.15
0.020000000000009406      0.059999999999999956     -0.003638075414529899    0.008589429573683954     0.306947177470078        301.3118849298178
0.0600000000000096        0                        0                        0                        0.30648049133870275      333.15
0.0600000000000094        0.01999999999999995      -0.006722094102062806    0.002226297597688971     0.30661782160372264      325.26445729968856
0                         0.07999999999999996      0                        0                        0.307018922160834        293.15
0.02000000000000921       0.07999999999999995      -0.004948501861887351    0.016059953147233155     0.30673763988968716      299.38664312217657
0.0800000000000094        0                        0                        0                        0.306425434739156        333.15
0.08000000000000919       0.019999999999999934     -0.010851623921299939    0.0023325550065152237    0.30657577879835596      327.0902533724472
0                         0.09999999999999995      0                        0                        0.3065063924057693       293.15
0.02000000000000901       0.09999999999999994      -0.0061094087371567326   0.025567795249013522     0.3061641760138078       298.0804052199684
0.10000000000000919       0                        0                        0                        0.3064329841649626       333.15
0.10000000000000904       0.019999999999999917     -0.01502693213468321     0.0022793886687890786    0.3065826717074923       328.1771183163735
0                         0.11999999999999994      0                        0                        0.30542673156636246      293.15
0.02000000000000881       0.11999999999999993      -0.007278001360020452    0.0368554041012898       0.30507367193863116      297.05566552516507
0.12000000000000899       0                        0                        0                        0.3064935979816325       333.15
0.12000000000000881       0.0199999999999999       -0.0190557410636014      0.0021754140431118375    0.30663659161845613      328.86589989667664
0                         0.1399999999999999       0                        0                        0.3035604064838799       293.15
0.020000000000008608      0.1399999999999999       -0.008316647879795242    0.04963845374343861      0.30309080966630747      296.1512347746649
0.14000000000000878       0                        0                        0                        0.30660474463380144      333.15
0.14000000000000856       0.019999999999999882     -0.022873406198205153    0.0020549881919100853    0.3067389081711784       329.32017862222864
0                         0.1599999999999999       0                        0                        0.29782803236812805      293.15
0.020000000000008407      0.1599999999999999       -0.010340179524638983    0.05876518936970746      0.29993084556567495      295.27197817900026
0.16000000000000858       0                        0                        0                        0.30676793751528547      333.15
0.1600000000000084        0.019999999999999872     -0.0264549693617789      0.0019248346392727277    0.3068925417087373       329.6292732750765
0                         0.17999999999999985      0                        0                        0.2917512215483762       293.15
0.02000000000000821       0.17999999999999983      0.0877239621035516       0.023795068704492283     0.29529033617601474      294.37333024841155
0.18000000000000838       0                        0                        0                        0.30698525606940513      333.15
0.18000000000000824       0.019999999999999858     -0.029786063602602247    0.0017873923949035505    0.30710004694281584      329.8459006970381
0                         0.2                      0.5                      0                        0.2924314581945911       293.15
0.02000000000000801       0.2                      0.5034027200948487       -0.014704585282605013    0.2963970474171576       293.6144307186101
0.20000000000000817       0                        0                        0                        0.30725776665123467      333.15
0.20000000000000798       0.019999999999999844     -0.03285882597714368     0.001646370590204685     0.3073627498275363       330.0026857454746
0                         0.21999999999999997      1                        0                        0.297737601396183        293.15
0.020000000000007814      0.21999999999999997      0.9676325850078907       -0.0016660784091334154   0.3055561325885208       293.27604517053146
0.22000000000000797       0                        0                        0                        0.30758531222406094      333.15
0.22000000000000777       0.01999999999999982      -0.0356725371628273      0.0015059826350241872    0.3076806979508205       330.12037689144626
0                         0.23999999999999994      1                        0                        0.2972189955052362       293.15
0.02000000000000761       0.2399999999999999       1.0044005167215357       0.009612021970408426     0.2961872300313769       293.1838112362609
0.24000000000000776       0                        0                        0                        0.30796685210060826      333.15
0.24000000000000765       0.019999999999999806     -0.038232658755344394    0.0013693645013899724    0.3080529678378885       330.2123634063067
0                         0.2599999999999999       1                        0                        0.28869420332502044      293.15
0.020000000000007408      0.2599999999999999       0.9995860971849387       0.007460284587830258     0.288782413748995        293.1599306041059
0.26000000000000756       0                        0                        0                        0.30840090481916593      333.15
0.2600000000000074        0.019999999999999792     -0.040547740861317544    0.001237454349502577     0.3084780554911913       330.2873460203185
0                         0.27999999999999986      1                        0                        0.28136206329434343      293.15
0.020000000000007206      0.2799999999999998       1.0000762930650446       0.007446488518421638     0.2813428770455343       293.15306370198647
0.28000000000000735       0                        0                        0                        0.3088859031358039       333.15
0.2800000000000072        0.019999999999999775     -0.04262493559606733     0.0011083700177185862    0.30895420430095827      330.35100207878685
0                         0.2999999999999998       1                        0                        0.2739376649598663       293.15
0.02000000000000701       0.2999999999999998       0.9999744784411658       0.0074282417450239335    0.273958895714968        293.15097758978146
0.30000000000000715       0                        0                        0                        0.30942035905512444      333.15
0.300000000000007         0.01999999999999976      -0.04446495800304629     9.772674915414425E-4     0.3094795772882629       330.40706641605493
0                         0.3199999999999998       1                        0                        0.2665024644679621       293.15
0.020000000000006807      0.3199999999999998       0.9999795612704573       0.007463215055341167     0.26652087990518175      293.1503198353879
0.32000000000000695       0                        0                        0                        0.3100027648044684       333.15
0.3200000000000069        0.019999999999999747     -0.0460574312615559      8.367687535773067E-4     0.3100522038100125       330.4580592179434
0                         0.33999999999999975      1                        0                        0.25901332507328095      293.15
0.020000000000006606      0.33999999999999975      0.9999722316869948       0.0075169318894012325    0.2590361128384574       293.1501066993406
0.34000000000000674       0                        0                        0                        0.3106311834614474       333.15
0.34000000000000663       0.01999999999999973      -0.04737771329433403     6.780619812343198E-4     0.3106696571684962       330.50579043611367
0                         0.35999999999999965      1                        0                        0.2514658433073047       293.15
0.020000000000006405      0.35999999999999965      0.9999701979448907       0.007578994515861875     0.2514903611040205       293.1500361615479
0.36000000000000654       0                        0                        0                        0.311302531363686        333.15
0.3600000000000064        0.019999999999999716     -0.048386392521513034    4.927088251708867E-4     0.3113284615084836       330.5517126237579
0                         0.37999999999999967      1                        0                        0.24385346132442848      293.15
0.020000000000006207      0.3799999999999997       0.9999688753827491       0.007645515436104431     0.243878930504333        293.1500124184986
0.38000000000000633       0                        0                        0                        0.31201162834692703      333.15
0.38000000000000633       0.019999999999999702     -0.049032538839903626    2.750591834267392E-4     0.31202328926611805      330.59715373120844
0                         0.39999999999999963      1                        0                        0.23617332018160744      293.15
0.020000000000006006      0.39999999999999963      0.9999683461520862       0.007714107990272472     0.23619919860734087      293.1500043170934
0.40000000000000613       0                        0                        0                        0.3127501886466702       333.15
0.400000000000006         0.019999999999999678     -0.04926138949114687     2.4967085469417378E-5    0.3127460928495215       330.64350291357397
0                         0.41999999999999954      1                        0                        0.22842404009202083      293.15
0.020000000000005805      0.41999999999999954      0.999968168106996        0.007783565615952192     0.22845004682727818      293.1500015293432
0.4200000000000059        0                        0                        0                        0.31350602710911435      333.15
0.4200000000000058        0.01999999999999967      -0.04902634523292438     -2.497642374023102E-4    0.31348540469442593      330.69225079992077
0                         0.43999999999999956      1                        0                        0.22060517355964682      293.15
0.020000000000005604      0.4399999999999996       0.9999682359788009       0.007853177069040073     0.22063111900860485      293.15000058801917
0.4400000000000057        0                        0                        0                        0.3142628194453207       333.15
0.4400000000000055        0.01999999999999965      -0.04830397463329141     -5.320067080877724E-4    0.31422610330365885      330.74488614993953
0                         0.45999999999999946      1                        0                        0.2127168238468349       293.15
0.020000000000005402      0.45999999999999946      0.999968472704866        0.00792248356517013      0.21274257423179121      293.1500003500645
0.4600000000000055        0                        0                        0                        0.31500072477169916      333.15
0.46000000000000546       0.01999999999999964      -0.047109394449569096    -7.958161803967134E-4    0.31494993071090327      330.80287269563235
0                         0.4799999999999994       1                        0                        0.20475949418010325      293.15
0.020000000000005205      0.4799999999999994       0.9999688574110526       0.007991131619855657     0.20478493073919551      293.150000545059
0.4800000000000053        0                        0                        0                        0.3156980046483182       333.15
0.4800000000000052        0.019999999999999626     -0.04550845326957781     -0.0010092854406944267   0.3156369085094541       330.86748859728783
0                         0.49999999999999944      1                        0                        0.19673404085785062      293.15
0.020000000000005007      0.49999999999999944      0.9999694281393096       0.008058771487778935     0.19675902439586065      293.15000145646434
0.5000000000000051        0                        0                        0                        0.3163334685591537       333.15
0.500000000000005         0.01999999999999961      -0.043623153284129114    -0.0011394311693801902   0.3162675322890966       330.9396189111757
0                         0.5199999999999994       1                        0                        0.18864174512867468      293.15
0.020000000000004806      0.5199999999999994       0.9999702362779146       0.00812491894402547      0.18866605559518942      293.15000434133066
0.5200000000000049        0                        0                        0                        0.3168892462158247       333.15
0.5200000000000048        0.019999999999999588     -0.041628164479834674    -0.0011578579051207682   0.31682531517875245      331.0195606036182
0                         0.5399999999999994       1                        0                        0.18048455623030066      293.15
0.020000000000004604      0.5399999999999994       0.9999716918184168       0.008188828776157855     0.18050781452818176      293.1500132316255
0.5400000000000047        0                        0                        0                        0.3173532044499987       333.15
0.5400000000000045        0.019999999999999574     -0.03973883883782104     -0.0010453625097673125   0.31729905408978026      331.1068680605954
0                         0.5599999999999993       1                        0                        0.17226567123049405      293.15
0.020000000000004403      0.5599999999999993       0.9999735575113711       0.008248747321817417     0.17228702636690274      293.150040838462
0.5600000000000045        0                        0                        0                        0.3177204242339425       333.15
0.5600000000000042        0.019999999999999563     -0.03819381285674865     -7.939630307427843E-4    0.31768425411156104      331.2002673424963
0                         0.5799999999999992       1                        0                        0.16399159173392802      293.15
0.020000000000004205      0.5799999999999992       0.999980609297625        0.00830275459869076      0.164008472053707        293.15012779038216
0.5800000000000043        0                        0                        0                        0.3179935233749942       333.15
0.5800000000000042        0.019999999999999542     -0.03723662187393276     -4.060262029716558E-4    0.31798347814712913      331.29766327182807
0                         0.5999999999999992       1                        0                        0.15567406449828156      293.15
0.020000000000004004      0.5999999999999992       0.9999797806097656       0.008340336527263662     0.15568296833615927      293.1504068125839
0.6000000000000041        0                        0                        0                        0.31818211046717404      333.15
0.600000000000004         0.01999999999999953      -0.03709997025298632     1.0846824231263528E-4    0.31820584330207924      331.3963332986512
0                         0.6199999999999992       1                        0                        0.14734851566419002      293.15
0.020000000000003803      0.6199999999999992       1.000068360656546        0.00835295286193752      0.14733297651983915      293.1513245594558
0.6200000000000039        0                        0                        0                        0.31830207378146574      333.15
0.6200000000000039        0.01999999999999951      -0.03799382149470285     7.345905438918681E-4     0.31836627955248453      331.4930369323856
0                         0.6399999999999991       1                        0                        0.13887105268437272      293.15
0.020000000000003605      0.6399999999999991       0.9996049750637611       0.008255200739064862     0.13907182976656082      293.15444850529894
0.6400000000000037        0                        0                        0                        0.318375535397143        333.15
0.6400000000000035        0.019999999999999497     -0.04009458833035638     0.0014521785808214195    0.31848530449507456      331.5841867170258
0                         0.6599999999999991       1                        0                        0.13116582540045507      293.15
0.020000000000003404      0.6599999999999991       1.0035524324724547       0.006058640241611114     0.13052704279260213      293.16564525850345
0.6600000000000035        0                        0                        0                        0.31843210608672673      333.15
0.6600000000000034        0.019999999999999483     -0.04352841278978655     0.0022307938817389063    0.3185898693731704       331.66647083628834
0                         0.679999999999999        1                        0                        0.11529664700528969      293.15
0.020000000000003203      0.679999999999999        0.9691048658371988       0.01599947492624804      0.12350101698633081      293.210018541495
0.6800000000000033        0                        0                        0                        0.3185115733931782       333.15
0.6800000000000032        0.019999999999999466     -0.04834173143589526     0.0030210144761784784    0.3187154569041895       331.73719433587996
0                         0.7                      0.5                      0                        0.10089840065983313      293.15
0.020000000000002998      0.7                      0.5088387931600543       0.02379215907602484      0.10509450508669665      293.3768314995202
0.7000000000000031        0                        0                        0                        0.3186675242642587       333.15
0.7000000000000028        0.019999999999999452     -0.054455215296655264    0.0037439894427715907    0.31890908464400036      331.79465927116354
0                         0.72                     0                        0                        0.09917728709446956      293.15
0.020000000000002804      0.72                     0.08951537939855714      -0.02121209405237611     0.10304045524529166      293.7588505635547
0.7200000000000029        0                        0                        0                        0.3189704447953501       333.15
0.7200000000000026        0.01999999999999943      -0.061603525271989354    0.004282938806065307     0.3192321075989088       331.838532220328
0                         0.74                     0                        0                        0.1056697017532842       293.15
0.020000000000002603      0.74                     -0.01014199771757711     -0.05893624641463981     0.10788475115410724      294.2147237096766
0.7400000000000027        0                        0                        0                        0.3195075091292393       333.15
0.7400000000000025        0.01999999999999942      -0.06927358310099521     0.004483682401530117     0.31976065171443         331.8700950768934
0                         0.76                     0                        0                        0.11134322333283488      293.15
0.0200000000000024        0.7599999999999999       -0.007436144483275426    -0.0509541109615997      0.11095502088079838      294.649596181007
0.7600000000000025        0                        0                        0                        0.32037492896779146      333.15
0.7600000000000025        0.019999999999999407     -0.07666651577185904     0.004171060031657716     0.32058038305998615      331.8923306063319
0                         0.78                     0                        0                        0.1131141241608031       293.15
0.020000000000002204      0.78                     -0.0057917260227901765   -0.04028249979836499     0.11284576937219001      295.06498425771684
0.7800000000000022        0                        0                        0                        0.32165864714478776      333.15
0.7800000000000021        0.019999999999999386     -0.08271495140346066     0.003186293093236102     0.3217713923239188       331.90980415328954
0                         0.8                      0                        0                        0.1142183679949281       293.15
0.020000000000002002      0.8                      -0.004503537122407192    -0.031666057342853667    0.1139564056746567       295.4753498247568
0.800000000000002         0                        0                        0                        0.32340142713306347      333.15
0.800000000000002         0.019999999999999376     -0.08618758510998614     0.0014440667964784435    0.32338035925579944      331.92855413388804
0                         0.8200000000000001       0                        0                        0.11491523873017662      293.15
0.0200000000000018        0.8200000000000001       -0.003726213595502148    -0.024580421771225422    0.11469301587105808      295.89636379497887
0.8200000000000018        0                        0                        0                        0.3255613270469682       333.15
0.8200000000000018        0.019999999999999362     -0.08589461346112309     -9.986848592691048E-4    0.3253820720505485       331.95555755788973
0                         0.8400000000000001       0                        0                        0.11536588893560543      293.15
0.020000000000001603      0.8400000000000001       -0.003158021605837744    -0.01857152350188069     0.11517427119463952      296.34855795598787
0.8400000000000016        0                        0                        0                        0.32797736787992         333.15
0.8400000000000016        0.01999999999999934      -0.0809820861988278      -0.0038820187008989514   0.32764295934423776      331.99771378797857
0                         0.8600000000000001       0                        0                        0.11563535061996669      293.15
0.020000000000001402      0.8600000000000001       -0.0026620912400052393   -0.01345224125912974     0.1154722338922155       296.862234339774
0.8600000000000014        0                        0                        0                        0.3303685701277579       333.15
0.8600000000000014        0.01999999999999933      -0.07125856598143453     -0.00671896268496774     0.32991206036235776      332.0610775351497
0                         0.8800000000000002       0                        0                        0.11576772687054203      293.15
0.0200000000000012        0.8800000000000002       -0.002178127006017836    -0.009170913863347218    0.11563253246848271      297.4854649582984
0.8800000000000012        0                        0                        0                        0.3323909533801383       333.15
0.8800000000000013        0.01999999999999931      -0.05746344597554084     -0.00885097616831603     0.3318673102312769       332.15016430175905
0                         0.9000000000000002       0                        0                        0.11579949723935101      293.15
0.020000000000001007      0.9000000000000002       -0.0016912628325622076   -0.0057301777005019415   0.11569254471070403      298.3006351149694
0.900000000000001         0                        0                        0                        0.33375113328521805      333.15
0.900000000000001         0.019999999999999296     -0.041341380671040255    -0.00963183900568769     0.33322332390433906      332.26699148989724
0                         0.9200000000000003       0                        0                        0.11576397885454745      293.15
0.020000000000000802      0.9200000000000003       -0.0012083732544100917   -0.0031353255427236217   0.1156852459833196       299.46279983956197
0.9200000000000008        0                        0                        0                        0.33433043771559867      333.15
0.9200000000000008        0.019999999999999286     -0.025387364103286972    -0.008714152578387861    0.3338586336112402       332.4106109275341
0                         0.9400000000000003       0                        0                        0.11569194946025309      293.15
0.0200000000000006        0.9400000000000003       -7.461938849280596E-4    -0.001368598052370327    0.11564033488394483      301.30460281035806
0.9400000000000006        0                        0                        0                        0.33424515918711484      333.15
0.9400000000000005        0.019999999999999265     -0.012225768983661877    -0.006293607684770645    0.33388071419716936      332.57689740266983
0                         0.9600000000000003       0                        0                        0.11561248702803         293.15
0.0200000000000004        0.9600000000000002       -3.287598424034787E-4    -3.730828837054167E-4    0.11558438739327838      304.67561679703846
0.9600000000000004        0                        0                        0                        0.33380061316169235      333.15
0.9600000000000004        0.019999999999999244     -0.0037654073195508004   -0.0031190680275821102   0.3335725467950751       332.7596029948445
0                         0.9800000000000004       0                        0                        0.11555710337847377      293.15
0.0200000000000002        0.9800000000000005       -1.3887421146443937E-5   -1.37992265535889E-5     0.11554181837907924      313.1976708376125
0.9800000000000002        0                        0                        0                        0.33339214930594474      333.15
0.9800000000000002        0.01999999999999924      -3.298362789229573E-4    -3.5253973236184545E-4   0.33325836123330455      332.9524522941227
0                         1                        0                        0                        0.1155421757748122       313.15
0.02                      1                        0                        0                        0.11552791234756804      333.15
1                         0                        0                        0                        0.33326655617464945      333.15
1                         0.01999999999999922      0                        0                        0.33314433440313923      333.15
0.04000000000000021       0.9800000000000003       -3.2534983501276136E-4   -2.7112533363904623E-4   0.11549754265988077      321.81297302015474
0.04                      1                        0                        0                        0.11547634757832607      333.15
0.9800000000000001        0.03999999999999926      -0.0022887999037403306   -0.00317075415639999     0.33290879023068204      332.7502244172475
1                         0.03999999999999924      0                        0                        0.332724876330084        333.15
0.06000000000000019       0.9800000000000004       -0.001064106434416459    -5.077139246018811E-4    0.11543779826575333      325.2596840821433
0.06                      1                        0                        0                        0.11540368111472665      333.15
0.9800000000000002        0.059999999999999276     -0.004247045703110265    -0.0094443776402317      0.3324143847599243       332.53834417421297
1                         0.059999999999999255     0                        0                        0.33209504235739506      333.15
0.08000000000000018       0.9800000000000004       -0.0021519284405995013   -6.658617067098661E-4    0.11537513739283002      327.1469114851344
0.07999999999999999       1                        0                        0                        0.11533030988799069      333.15
0.9800000000000002        0.07999999999999931      -0.006334887246603306    -0.019408575916703606    0.3318033761846952       332.31149433932114
1                         0.07999999999999928      0                        0                        0.33133226100922686      333.15
0.10000000000000016       0.9800000000000005       -0.0034681026923805377   -7.605966723017663E-4    0.11531415193346907      328.3160082507452