% Model:              steadyNS+传热1.mph
% Version:            COMSOL 5.6.0.341
% Date:               Apr 21 2022, 15:09
% Dimension:          2
% Nodes:              2601
% Expressions:        4
% Description:        速度场，x 分量, 速度场，y 分量, 压力, 温度
% Length unit:        null
% x                       y                        u                        v                        p                        T
0                         0                        0                        0                        0.30683562651184         313.15
0.02000000000001001       0                        0                        0                        0.30676220278083177      333.15
0                         0.019999999999999993     0                        0                        0.3069115436252016       293.15
0.02000000000000981       0.01999999999999998      -7.436497303027196E-4    7.347849085975997E-4     0.3068318799704006       314.71982606030144
0                         0.03999999999999999      0                        0                        0.30707260461403396      293.15
0.02000000000000961       0.03999999999999997      -0.0021985370332799447   0.003441714921145046     0.30693568007524513      307.697673965474
0.040000000000009805      0                        0                        0                        0.30660670785532834      333.15
0.04000000000000962       0.019999999999999962     -0.0031014158864382502   0.0017481558259606475    0.3067089112858842       324.5238773222092
0                         0.05999999999999998      0                        0                        0.30716050393871874      293.15
0.020000000000009406      0.059999999999999956     -0.003638075406420692    0.008589429553518888     0.306947119596067        305.62209823611505
0.0600000000000096        0                        0                        0                        0.30648043346747184      333.15
0.0600000000000094        0.01999999999999995      -0.006722094078375186    0.002226297586424822     0.30661776373173955      328.5438383402616
0                         0.07999999999999996      0                        0                        0.3070188642860818       293.15
0.02000000000000921       0.07999999999999995      -0.004948501856648067    0.0160599531142724       0.306737582015355        304.8082775973856
0.0800000000000094        0                        0                        0                        0.3064253768684459       333.15
0.08000000000000919       0.019999999999999934     -0.01085162387190335     0.0023325549884744673    0.306575720926611        330.42046484145874
0                         0.09999999999999995      0                        0                        0.3065063345298412       293.15
0.02000000000000901       0.09999999999999994      -0.006109408743766706    0.025567795211714        0.30616411813764643      304.36391202815287
0.10000000000000919       0                        0                        0                        0.30643292629352303      333.15
0.10000000000000904       0.019999999999999917     -0.015026932048438859    0.0022793886441658143    0.3065826138348365       331.19724194287954
0                         0.11999999999999994      0                        0                        0.3054266736809752       293.15
0.02000000000000881       0.11999999999999993      -0.007278001392895698    0.036855404074847005     0.3050736140549652       303.892483886035
0.12000000000000899       0                        0                        0                        0.30649354010719415      333.15
0.12000000000000881       0.0199999999999999       -0.01905574093199634     0.002175414014468173     0.3066365337428298       331.42644690789575
0                         0.1399999999999999       0                        0                        0.3035603485830659       293.15
0.020000000000008608      0.1399999999999999       -0.00831664785409962     0.049638453736555274     0.30309075176134953      302.9997562163086
0.14000000000000878       0                        0                        0                        0.3066046867531161       333.15
0.14000000000000856       0.019999999999999882     -0.022873406019479174    0.0020549881643772265    0.306738850289667        331.4152543474251
0                         0.1599999999999999       0                        0                        0.2978279744462761       293.15
0.020000000000008407      0.1599999999999999       -0.010340179733945269    0.05876518949908694      0.29993078765059383      300.7416224645036
0.16000000000000858       0                        0                        0                        0.30676787962448687      333.15
0.1600000000000084        0.019999999999999872     -0.026454969145012892    0.0019248346204182177    0.3068924838179289       331.31724919628834
0                         0.17999999999999985      0                        0                        0.29175116359026915      293.15
0.02000000000000821       0.17999999999999983      0.08772396238773833      0.02379506896335004      0.29529027824168463      295.96206416602735
0.18000000000000838       0                        0                        0                        0.30698519816467884      333.15
0.18000000000000824       0.019999999999999858     -0.029786063371435446    0.0017873923943853031    0.30709998903943775      331.19753733431435
0                         0.2                      0.5                      0                        0.2924314002824051       293.15
0.02000000000000801       0.2                      0.5034027202966355       -0.014704585268948496    0.2963969895355567       293.16162394533296
0.20000000000000817       0                        0                        0                        0.3072577087297479       333.15
0.20000000000000798       0.019999999999999844     -0.03285882577247991     0.0016463706188670816    0.3073626919093183       331.0789582009888
0                         0.21999999999999997      1                        0                        0.29773754329968743      293.15
0.020000000000007814      0.21999999999999997      0.9676325849725601       -0.0016660782349109072   0.305556074858079        293.1580608051878
0.22000000000000797       0                        0                        0                        0.3075852542850665       333.15
0.22000000000000777       0.01999999999999982      -0.03567253704337736     0.0015059827032427176    0.3076806400174935       330.96770090278346
0                         0.23999999999999994      1                        0                        0.2972189372977768       293.15
0.02000000000000761       0.2399999999999999       1.004400514177895        0.00961202374802791      0.29618717048699733      293.1488549534479
0.24000000000000776       0                        0                        0                        0.3079667941465737       333.15
0.24000000000000765       0.019999999999999806     -0.03823265879486426     0.0013693646168131905    0.3080529098921777       330.86454235665354
0                         0.2599999999999999       1                        0                        0.28869414604917304      293.15
0.020000000000007408      0.2599999999999999       0.9995860994735696       0.007460296096817957     0.2887823545285329       293.15017747115536
0.26000000000000756       0                        0                        0                        0.3084008468567245       333.15
0.2600000000000074        0.019999999999999792     -0.04054774114189185     0.00123745451459391      0.3084779975396168       330.7688794368498
0                         0.27999999999999986      1                        0                        0.2813620072790701       293.15
0.020000000000007206      0.2799999999999998       1.0000762940194752       0.007446495703078832     0.28134282298987817      293.1499689843106
0.28000000000000735       0                        0                        0                        0.3088858451763171       333.15
0.2800000000000072        0.019999999999999775     -0.042624936197355495    0.0011083702273816554    0.30895414635424734      330.6799709882525
0                         0.2999999999999998       1                        0                        0.27393761063963007      293.15
0.02000000000000701       0.2999999999999998       0.9999744781411277       0.007428242009843364     0.27395884248542385      293.1500057439175
0.30000000000000715       0                        0                        0                        0.3094203011146718       333.15
0.300000000000007         0.01999999999999976      -0.0444649589876157      9.77267730860254E-4      0.30947951936120516      330.59730488912896
0                         0.3199999999999998       1                        0                        0.26650241054712537      293.15
0.020000000000006807      0.3199999999999998       0.9999795610734027       0.007463215261821879     0.2665208258739159       293.14999873456725
0.32000000000000695       0                        0                        0                        0.31000270690308634      333.15
0.3200000000000069        0.019999999999999747     -0.046057432656538284    8.367689958108304E-4     0.31005214592062597      330.52073080884617
0                         0.33999999999999975      1                        0                        0.25901327095952614      293.15
0.020000000000006606      0.33999999999999975      0.9999722318963529       0.007516931634936332     0.2590360586841199       293.1500002696933
0.34000000000000674       0                        0                        0                        0.3106311256214084       333.15
0.34000000000000663       0.01999999999999973      -0.04737771507046848     6.780621868210289E-4     0.3106695993363671       330.4505224935454
0                         0.35999999999999965      1                        0                        0.25146578919880463      293.15
0.020000000000006405      0.35999999999999965      0.9999701979572349       0.007578994416898711     0.2514903068701463       293.14999994178527
0.36000000000000654       0                        0                        0                        0.3113024736065918       333.15
0.3600000000000064        0.019999999999999716     -0.048386394572786554    4.927089434303297E-4     0.3113284037521375       330.38739116240754
0                         0.37999999999999967      1                        0                        0.24385340734631086      293.15
0.020000000000006207      0.3799999999999997       0.999968875407166        0.007645515314134504     0.24387887651629656      293.15000001268135
0.38000000000000633       0                        0                        0                        0.31201157068958585      333.15
0.38000000000000633       0.019999999999999702     -0.049032540969860414    2.7505915874569543E-4    0.31202323159939666      330.3324395758513
0                         0.39999999999999963      1                        0                        0.23617326644003428      293.15
0.020000000000006006      0.39999999999999963      0.9999683461723994       0.007714107783830276     0.23619914486046711      293.14999999721977
0.40000000000000613       0                        0                        0                        0.31275013109621097      333.15
0.400000000000006         0.019999999999999678     -0.04926139141355272     2.496686819501544E-5     0.31274603527732886      330.28703993696126
0                         0.41999999999999954      1                        0                        0.22842398662006203      293.15
0.020000000000005805      0.41999999999999954      0.9999681681226275       0.007783565350413369     0.2284499933450566       293.15000000060706
0.4200000000000059        0                        0                        0                        0.3135059696584601       333.15
0.4200000000000058        0.01999999999999967      -0.04902634659258359     -2.4976467753678685E-4   0.3134853472087489       330.2526726798164
0                         0.43999999999999956      1                        0                        0.22060512038513555      293.15
0.020000000000005604      0.4399999999999996       0.9999682359906356       0.00785317676410886      0.2206310658250573       293.1499999998918
0.4400000000000057        0                        0                        0                        0.3142627620705492       333.15
0.4400000000000055        0.01999999999999965      -0.048303975047265905    -5.320073710949508E-4    0.31422604588118463      330.22989220692455
0                         0.45999999999999946      1                        0                        0.21271677099631597      293.15
0.020000000000005402      0.45999999999999946      0.9999684727151852       0.007922483231266242     0.21274252137311386      293.1499999999093
0.4600000000000055        0                        0                        0                        0.3150006674323165       333.15
0.46000000000000546       0.01999999999999964      -0.0471093935606743      -7.958170334753392E-4    0.31494987331325014      330.21861378211713
0                         0.4799999999999994       1                        0                        0.20475944167755916      293.15
0.020000000000005205      0.4799999999999994       0.9999688574212816       0.00799113126305154      0.20478487822755082      293.1500000005226
0.4800000000000053        0                        0                        0                        0.31569794729030287      333.15
0.4800000000000052        0.019999999999999626     -0.0455084507974366      -0.0010092864254477385   0.31563685108580275      330.21798813606756
0                         0.49999999999999944      1                        0                        0.1967339887275164       293.15
0.020000000000005007      0.49999999999999944      0.999969428150598        0.008058771112764802     0.19675897225462355      293.1499999976734
0.5000000000000051        0                        0                        0                        0.3163334111192922       333.15
0.500000000000005         0.01999999999999961      -0.04362314906121708     -0.0011394322155589079   0.3162674747799127       330.2257547666578
0                         0.5199999999999994       1                        0                        0.1886416933940289       293.15
0.020000000000004806      0.5199999999999994       0.9999702362953538       0.008124918542613652     0.18866600385470872      293.15000001028517
0.5200000000000049        0                        0                        0                        0.3168891886255485       333.15
0.5200000000000048        0.019999999999999588     -0.04162815846323458     -0.0011578589465176376   0.31682525751871193      330.2381647841188
0                         0.5399999999999994       1                        0                        0.18048450493337628      293.15
0.020000000000004604      0.5399999999999994       0.9999716918402809       0.008188828313852961     0.18050776320077244      293.14999995431634
0.5400000000000047        0                        0                        0                        0.3173531466363976       333.15
0.5400000000000045        0.019999999999999574     -0.0397388310960182      -0.0010453634995327063   0.3172989962087587       330.2499712601411
0                         0.5599999999999993       1                        0                        0.1722656204022729       293.15
0.020000000000004403      0.5599999999999993       0.9999735575438307       0.008248746860474956     0.17228697554260083      293.15000020421854
0.5600000000000045        0                        0                        0                        0.3177203661167654       333.15
0.5600000000000042        0.019999999999999563     -0.03819380354062668     -7.939639378233469E-4    0.3176841959323009       330.25445571925957
0                         0.5799999999999992       1                        0                        0.16399154134385074      293.15
0.020000000000004205      0.5799999999999992       0.999980609266817        0.008302753880618907     0.1640084217703089       293.1499990794525
0.5800000000000043        0                        0                        0                        0.3179934648607127       333.15
0.5800000000000042        0.019999999999999542     -0.03723661122636243     -4.0602696964431404E-4   0.3179834195818782       330.2439859722508
0                         0.5999999999999992       1                        0                        0.1556740145591998       293.15
0.020000000000004004      0.5999999999999992       0.9999797806204865       0.008340335494066169     0.15568291834727244      293.1500040715113
0.6000000000000041        0                        0                        0                        0.3181820514496982       333.15
0.600000000000004         0.01999999999999953      -0.03709995868639772     1.0846775598728321E-4    0.31820578425323687      330.2119537696344
0                         0.6199999999999992       1                        0                        0.14734846589068168      293.15
0.020000000000003803      0.6199999999999992       1.0000683603359595       0.008352952301533411     0.14733292705573958      293.1499796657321
0.6200000000000039        0                        0                        0                        0.318302014153764        333.15
0.6200000000000039        0.01999999999999951      -0.03799380969540528     7.345905077508409E-4     0.3183662199226513       330.15113484606934
0                         0.6399999999999991       1                        0                        0.13887100287479195      293.15
0.020000000000003605      0.6399999999999991       0.9996049752866051       0.00825519892538385      0.13907178012517218      293.1501209247137
0.6400000000000037        0                        0                        0                        0.31837547506209707      333.15
0.6400000000000035        0.019999999999999497     -0.04009457721273875     0.0014521790854947175    0.31848524419798485      330.05326239972027
0                         0.6599999999999991       1                        0                        0.13116577564659598      293.15
0.020000000000003404      0.6599999999999991       1.0035524330390766       0.006058638280458456     0.13052699263644243      293.1491960226875
0.6600000000000035        0                        0                        0                        0.31843204496217653      333.15
0.6600000000000034        0.019999999999999483     -0.04352840334476626     0.002230794956855887     0.31858980833559525      329.91425156757856
0                         0.679999999999999        1                        0                        0.1152965975773464       293.15
0.020000000000003203      0.679999999999999        0.9691048655099181       0.015999473917809766     0.12350096726383422      293.15566120528126
0.6800000000000033        0                        0                        0                        0.3185115114408518       333.15
0.6800000000000032        0.019999999999999466     -0.04834172460381006     0.003021016173962975     0.31871539508293745      329.7334784977057
0                         0.7                      0.5                      0                        0.10089835155696746      293.15
0.020000000000002998      0.7                      0.5088387928559883       0.023792158695081833     0.10509445599283761      293.1556974045886
0.7000000000000031        0                        0                        0                        0.3186674615456101       333.15
0.7000000000000028        0.019999999999999452     -0.054455211961686414    0.0037439917757630986    0.3189090220868738       329.51413944604
0                         0.72                     0                        0                        0.09917723803298022      293.15
0.020000000000002804      0.72                     0.08951537915624293      -0.02121209415245871     0.10304040618786052      295.2418479471735
0.7200000000000029        0                        0                        0                        0.31897038152846974      333.15
0.7200000000000026        0.01999999999999943      -0.06160352611898765     0.004282941656752777     0.3192320444980313       329.2638487424825
0                         0.74                     0                        0                        0.10566965265429365      293.15
0.020000000000002603      0.74                     -0.01014199748655989     -0.058936246328039475    0.107884702063735        298.8814635913565
0.7400000000000027        0                        0                        0                        0.31950744567946643      333.15
0.7400000000000025        0.01999999999999942      -0.06927358862002923     0.0044836855298821515    0.31976058841285465      328.9950476349989
0                         0.76                     0                        0                        0.11134317425457514      293.15
0.0200000000000024        0.7599999999999999       -0.00743614452970784     -0.05095411098147312     0.11095497181124145      300.5759411521726
0.7600000000000025        0                        0                        0                        0.3203748657790331       333.15
0.7600000000000025        0.019999999999999407     -0.07666652616578624     0.004171063183177869     0.3205803199774683       328.72546700058
0                         0.78                     0                        0                        0.11311407509098427      293.15
0.020000000000002204      0.78                     -0.005791726025101413    -0.04028249980586792     0.11284572030174332      301.1413453867305
0.7800000000000022        0                        0                        0                        0.32165858460972296      333.15
0.7800000000000021        0.019999999999999386     -0.08271496672898755     0.003186295907932823     0.32177132984512163      328.47775714229766
0                         0.8                      0                        0                        0.11421831892193536      293.15
0.020000000000002002      0.8                      -0.004503537109097685    -0.03166605736123369     0.11395635660204362      301.3229376105045
0.800000000000002         0                        0                        0                        0.3234013654576515       333.15
0.800000000000002         0.019999999999999376     -0.08618760489743554     0.0014440688169827954    0.32338029759144404      328.2832313508574
0                         0.8200000000000001       0                        0                        0.11491518965614272      293.15
0.0200000000000018        0.8200000000000001       -0.0037262135834312702   -0.024580421810335776    0.11469296679761858      301.3725230192242
0.8200000000000018        0                        0                        0                        0.3255612661833778       333.15
0.8200000000000018        0.019999999999999362     -0.08589463660972484     -9.986840019658983E-4    0.3253820111568068       328.1822601414364
0                         0.8400000000000001       0                        0                        0.11536583986223457      293.15
0.020000000000001603      0.8400000000000001       -0.003158021598360706    -0.01857152355727334     0.1151742221216128       301.3809152558402
0.8400000000000016        0                        0                        0                        0.3279773075610888       333.15
0.8400000000000016        0.01999999999999934      -0.08098211091328314     -0.0038820191199700677   0.32764289898167775      328.20689115592756
0                         0.8600000000000001       0                        0                        0.11563530154815525      293.15
0.020000000000001402      0.8600000000000001       -0.002662091237910293    -0.013452241322369411    0.11547218482048754      301.40008143443265
0.8600000000000014        0                        0                        0                        0.33036851001700585      333.15
0.8600000000000014        0.01999999999999933      -0.0712585898701191      -0.0067189643261417265   0.3299120001994868       328.3820838261986
0                         0.8800000000000002       0                        0                        0.11576767780062484      293.15
0.0200000000000012        0.8800000000000002       -0.002178127008837377    -0.0091709139257276      0.11563248339840314      301.47984624532296
0.8800000000000012        0                        0                        0                        0.3323908932036352       333.15
0.8800000000000013        0.01999999999999931      -0.05746346665413488     -0.008850978625117079    0.3318672499927055       328.7268912241608
0                         0.9000000000000002       0                        0                        0.11579944817117245      293.15
0.020000000000001007      0.9000000000000002       -0.0016912628391392486   -0.0057301777546069615   0.11569249564217439      301.701311070021
0.900000000000001         0                        0                        0                        0.33375107294099454      333.15
0.900000000000001         0.019999999999999296     -0.041341396401607174    -0.00963184165991619     0.3332232634829031       329.24431301578204
0                         0.9200000000000003       0                        0                        0.11576392978761578      293.15
0.020000000000000802      0.9200000000000003       -0.0012083732630622532   -0.0031353255835084902   0.11568519691592911      302.2214406939453
0.9200000000000008        0                        0                        0                        0.33433037728448617      333.15
0.9200000000000008        0.019999999999999286     -0.025387374487057274    -0.008714154981802585    0.333858573073187        329.9182781135213
0                         0.9400000000000003       0                        0                        0.1156919003939174       293.15
0.0200000000000006        0.9400000000000003       -7.461938936660221E-4    -0.0013685980779121784   0.11564028581714268      303.3806904859086
0.9400000000000006        0                        0                        0                        0.33424509879049275      333.15
0.9400000000000005        0.019999999999999265     -0.01222577481584621     -0.006293609698507036    0.3338806536842479       330.6996414448348
0                         0.9600000000000003       0                        0                        0.11561243796166566      293.15
0.0200000000000004        0.9600000000000002       -3.287598491657544E-4    -3.7308289555472955E-4   0.11558433832654995      306.0451831819687
0.9600000000000004        0                        0                        0                        0.33380055281302895      333.15
0.9600000000000004        0.019999999999999244     -0.0037654099211948838   -0.003119069538049888    0.33357248635823217      331.521586364991
0                         0.9800000000000004       0                        0                        0.11555705431172343      293.15
0.0200000000000002        0.9800000000000005       -1.3887424126786806E-5   -1.3799229520476461E-5   0.11554176931208884      313.86397392812296
0.9800000000000002        0                        0                        0                        0.33339208892548056      333.15
0.9800000000000002        0.01999999999999924      -3.298369847395455E-4    -3.5254047041223736E-4   0.3332583008016484       332.34196159920094
0                         1                        0                        0                        0.11554212670782454      313.15
0.02                      1                        0                        0                        0.11552786328034086      333.15
1                         0                        0                        0                        0.33326649575103         333.15
1                         0.01999999999999922      0                        0                        0.3331442739341291       333.15
0.04000000000000021       0.9800000000000003       -3.2534984677552644E-4   -2.711253402284928E-4    0.11549749359261628      323.0924172343223
0.04                      1                        0                        0                        0.1154762985106814       333.15
0.9800000000000001        0.03999999999999926      -0.0022888009586653794   -0.0031707564078959586   0.33290872978171543      331.54500705741697
1                         0.03999999999999924      0                        0                        0.33272481582250035      333.15
0.06000000000000019       0.9800000000000004       -0.0010641064600405124   -5.077139335039748E-4    0.11543774919846628      327.0082228023775
0.06                      1                        0                        0                        0.11540363204689717      333.15
0.9800000000000002        0.059999999999999276     -0.004247046793710392    -0.009444381558558078    0.3324143243968046       330.75265456178033
1                         0.059999999999999255     0                        0                        0.3320949819255083       333.15
0.08000000000000018       0.9800000000000004       -0.002151928483484479    -6.658617171360712E-4    0.11537508832586071      329.16688322374483
0.07999999999999999       1                        0                        0                        0.11533026082036675      333.15
0.9800000000000002        0.07999999999999931      -0.006334888336878764    -0.0194085813258124      0.33180331606760344      329.94117994323875
1                         0.07999999999999928      0                        0                        0.33133220083863113      333.15
0.10000000000000016       0.9800000000000005       -0.0034681027549725695   -7.605966839438431E-4    0.11531410286720321      330.4068716061494