% Model:              steadyNS+传热1.mph
% Version:            COMSOL 5.6.0.341
% Date:               Apr 5 2022, 16:00
% Dimension:          2
% Nodes:              2601
% Expressions:        4
% Description:        速度场，x 分量, 速度场，y 分量, 压力, 温度
% Length unit:        null
% x                       y                        u                        v                        p                        T
0                         0                        0                        0                        0.3068355599777961       313.15
0.02000000000001001       0                        0                        0                        0.30676213624714627      333.15
0                         0.019999999999999993     0                        0                        0.3069114770908263       293.15
0.02000000000000981       0.01999999999999998      -7.436497282954055E-4    7.347849067108829E-4     0.3068318134363777       315.43175577445504
0                         0.03999999999999999      0                        0                        0.3070725380788292       293.15
0.02000000000000961       0.03999999999999997      -0.0021985370250997534   0.0034417149098412937    0.3069356135405797       309.1334680816114
0.040000000000009805      0                        0                        0                        0.3066066413227099       333.15
0.04000000000000962       0.019999999999999962     -0.0031014158747106053   0.001748155818090986     0.3067088447526597       325.6124835479073
0                         0.05999999999999998      0                        0                        0.3071604374028903       293.15
0.020000000000009406      0.059999999999999956     -0.003638075394733699    0.008589429524739496     0.30694705306097564      307.6604281508345
0.0600000000000096        0                        0                        0                        0.30648036693615055      333.15
0.0600000000000094        0.01999999999999995      -0.006722094045734374    0.0022262975711597995    0.30661769719939685      329.47851057400015
0                         0.07999999999999996      0                        0                        0.3070187977500567       293.15
0.02000000000000921       0.07999999999999995      -0.0049485018482027625   0.01605995306653806      0.3067375154799553       307.33556639157314
0.0800000000000094        0                        0                        0                        0.30642531033786247      333.15
0.08000000000000919       0.019999999999999934     -0.010851623804536198    0.002332554964250005     0.30657565439462414      330.8722949714439
0                         0.09999999999999995      0                        0                        0.30650626799260977      293.15
0.02000000000000901       0.09999999999999994      -0.006109408750002357    0.02556779515526859      0.30616405160022897      307.3265198685895
0.10000000000000919       0                        0                        0                        0.3064328597620738       333.15
0.10000000000000904       0.019999999999999917     -0.015026931931479583    0.002279388611134597     0.30658254730172785      331.148521935848
0                         0.11999999999999994      0                        0                        0.3054266071324431       293.15
0.02000000000000881       0.11999999999999993      -0.007278001431765341    0.036855404028507614     0.30507354750866417      307.37008324681443
0.12000000000000899       0                        0                        0                        0.306493473571963        333.15
0.12000000000000881       0.0199999999999999       -0.019055740753784328    0.0021754139758376027    0.3066364672059473       331.02600752260173
0                         0.1399999999999999       0                        0                        0.30356028201605384      293.15
0.020000000000008608      0.1399999999999999       -0.00831664781970587     0.049638453710954        0.30309068518929805      307.27565667873023
0.14000000000000878       0                        0                        0                        0.3066046202099254       333.15
0.14000000000000856       0.019999999999999882     -0.022873405776892525    0.0020549881266840285    0.3067387837452573       330.8103499086127
0                         0.1599999999999999       0                        0                        0.29782790785517876      293.15
0.020000000000008407      0.1599999999999999       -0.010340179992845089    0.05876518964246204      0.2999307210671175       305.58775426357863
0.16000000000000858       0                        0                        0                        0.306767813068363        333.15
0.1600000000000084        0.019999999999999872     -0.026454968848784365    0.001924834593362527     0.3068924172616          330.59355575361263
0                         0.17999999999999985      0                        0                        0.29175109695806717      293.15
0.02000000000000821       0.17999999999999983      0.0877239626952364       0.02379506929880771      0.29529021163665764      297.2424563057115
0.18000000000000838       0                        0                        0                        0.30698513159070684      333.15
0.18000000000000824       0.019999999999999858     -0.029786063051008976    0.001787392390384158     0.30709992246697443      330.3928804531673
0                         0.2                      0.5                      0                        0.29243133370555546      293.15
0.02000000000000801       0.2                      0.5034027205676196       -0.014704585221881615    0.29639692299276865      292.9592612301549
0.20000000000000817       0                        0                        0                        0.3072576421342483       333.15
0.20000000000000798       0.019999999999999844     -0.032858825479617056    0.0016463706519499906    0.307362625317776        330.2085177692327
0                         0.21999999999999997      1                        0                        0.29773747647891463      293.15
0.020000000000007814      0.21999999999999997      0.967632584938649        -0.0016660780008603449   0.30555600848141296      293.1717296952696
0.22000000000000797       0                        0                        0                        0.3075851876669892       333.15
0.22000000000000777       0.01999999999999982      -0.03567253685308206     0.0015059827869839176    0.30768057340645577      330.03853803244465
0                         0.23999999999999994      1                        0                        0.29721887030696736      293.15
0.02000000000000761       0.2399999999999999       1.0044005110283825       0.009612025969126867     0.2961871018669951       293.14707930091714
0.24000000000000776       0                        0                        0                        0.30796672750894066      333.15
0.24000000000000765       0.019999999999999806     -0.03823265880203869     0.0013693647614015524    0.3080528432650169       329.88120452665436
0                         0.2599999999999999       1                        0                        0.28869408017710924      293.15
0.020000000000007408      0.2599999999999999       0.9995861022894795       0.007460310266453093     0.2887822862470078       293.150463173285
0.26000000000000756       0                        0                        0                        0.3084007802078815       333.15
0.2600000000000074        0.019999999999999792     -0.04054774145269256     0.0012374547234929932    0.3084779309045389       329.73509733403193
0                         0.27999999999999986      1                        0                        0.28136194292560435      293.15
0.020000000000007206      0.2799999999999998       1.000076295164244        0.0074465047013470426    0.2813427610334684       293.14992235574493
0.28000000000000735       0                        0                        0                        0.3088857785307199       333.15
0.2800000000000072        0.019999999999999775     -0.04262493691493633     0.001108370493990058     0.30895407972487265      329.5991138371177
0                         0.2999999999999998       1                        0                        0.27393754832652756      293.15
0.02000000000000701       0.2999999999999998       0.9999744777791163       0.007428242468926436     0.2739587815484351       293.15001443840885
0.30000000000000715       0                        0                        0                        0.3094202344929363       333.15
0.300000000000007         0.01999999999999976      -0.044464960192469156    9.772680354284981E-4     0.3094794527564429       329.47255135285104
0                         0.3199999999999998       1                        0                        0.26650234867757366      293.15
0.020000000000006807      0.3199999999999998       0.999979560850384        0.007463215535679982     0.2665207638695308       293.14999692482826
0.32000000000000695       0                        0                        0                        0.3100026403310343       333.15
0.3200000000000069        0.019999999999999747     -0.04605743438204078     8.367693028815733E-4     0.31005207936363155      329.3552361071441
0                         0.33999999999999975      1                        0                        0.2590132087958794       293.15
0.020000000000006606      0.33999999999999975      0.9999722321516478       0.007516931392714632     0.2590359964576485       293.15000074351616
0.34000000000000674       0                        0                        0                        0.3106310591278115       333.15
0.34000000000000663       0.01999999999999973      -0.047377717275344663    6.780624441851381E-4     0.3106695328523805       329.24765022340074
0                         0.35999999999999965      1                        0                        0.25146572698760794      293.15
0.020000000000006405      0.35999999999999965      0.9999701979742317       0.007578994343909617     0.25149024451134644      293.1499998262672
0.36000000000000654       0                        0                        0                        0.31130240721932695      333.15
0.3600000000000064        0.019999999999999716     -0.04838639711483128     4.927090846169978E-4     0.3113283373650156       329.1510110268972
0                         0.37999999999999967      1                        0                        0.24385334524824512      293.15
0.020000000000006207      0.3799999999999997       0.9999688754372887       0.007645515209258419     0.24387881440529066      293.1500000407514
0.38000000000000633       0                        0                        0                        0.3120115044301828       333.15
0.38000000000000633       0.019999999999999702     -0.04903254358876056     2.75059111301396E-4      0.3120231653268237       329.06726099423247
0                         0.39999999999999963      1                        0                        0.23617320458259086      293.15
0.020000000000006006      0.39999999999999963      0.999968346197624        0.007714107575648644     0.23619908299590917      293.14999999041663
0.40000000000000613       0                        0                        0                        0.3127500649734057       333.15
0.400000000000006         0.019999999999999678     -0.0492613937326887      2.49665679971239E-5      0.3127459691251996       328.99893424114697
0                         0.41999999999999954      1                        0                        0.22842392504481307      293.15
0.020000000000005805      0.41999999999999954      0.9999681681416476       0.007783565070933987     0.2284499317569053       293.1500000022302
0.4200000000000059        0                        0                        0                        0.31350590366223596      333.15
0.4200000000000058        0.01999999999999967      -0.04902634814724901     -2.4976526869882403E-4   0.31348528116592245      328.94890652916774
0                         0.43999999999999956      1                        0                        0.22060505912662984      293.15
0.020000000000005604      0.4399999999999996       0.9999682360049694       0.007853176437584269     0.2206310045554709       293.1499999996011
0.4400000000000057        0                        0                        0                        0.31426269616868446      333.15
0.4400000000000055        0.01999999999999965      -0.04830397533949281     -5.320082513610461E-4    0.3142259799163609       328.9182308495478
0                         0.45999999999999946      1                        0                        0.2127167100868866       293.15
0.020000000000005402      0.45999999999999946      0.9999684727275477       0.007922482869830738     0.2127424604540229       293.14999999957223
0.4600000000000055        0                        0                        0                        0.3150006015708101       333.15
0.46000000000000546       0.01999999999999964      -0.04710939212987272     -7.9581815770858E-4      0.31494980737532147      328.9073111644431
0                         0.4799999999999994       1                        0                        0.20475938114587675      293.15
0.020000000000005205      0.4799999999999994       0.9999688574334461       0.00799113087389095      0.2047848176852738       293.1500000022209
0.4800000000000053        0                        0                        0                        0.31569788139751354      333.15
0.4800000000000052        0.019999999999999626     -0.045508447287384166    -0.00100928771499952     0.31563678510742904      328.91554943077995
0                         0.49999999999999944      1                        0                        0.19673392860227026      293.15
0.020000000000005007      0.49999999999999944      0.9999694281640062       0.008058770701997287     0.19675891211640686      293.1499999908631
0.5000000000000051        0                        0                        0                        0.3163333451118487       333.15
0.500000000000005         0.01999999999999961      -0.043623143266673076    -0.0011394335767252268   0.31626740868260284      328.9398063270298
0                         0.5199999999999994       1                        0                        0.18864163370304995      293.15
0.020000000000004806      0.5199999999999994       0.9999702363162394       0.008124918102444756     0.1886659441564462       293.1500000371822
0.5200000000000049        0                        0                        0                        0.3168891224136316       333.15
0.5200000000000048        0.019999999999999588     -0.041628150343929166    -0.0011578602919070386   0.3168251912168963       328.97434043711854
0                         0.5399999999999994       1                        0                        0.18048444572786707      293.15
0.020000000000004604      0.5399999999999994       0.9999716918653727       0.008188827805315104     0.18050770395663415      293.1499998486139
0.5400000000000047        0                        0                        0                        0.3173530801252618       333.15
0.5400000000000045        0.019999999999999574     -0.03973882075732538     -0.0010453647683673732   0.3172989296112755       329.0107092127422
0                         0.5599999999999993       1                        0                        0.1722655617152545       293.15
0.020000000000004403      0.5599999999999993       0.9999735575810478       0.008248746362173997     0.17228691686679742      293.15000061713243
0.5600000000000045        0                        0                        0                        0.31772029920287886      333.15
0.5600000000000042        0.019999999999999563     -0.038193791193549445    -7.939650912015912E-4    0.3176841289394138       329.03774705112954
0                         0.5799999999999992       1                        0                        0.1639914831362818       293.15
0.020000000000004205      0.5799999999999992       0.9999806092268427       0.00830275305323415      0.16400836369096045      293.1499974354949
0.5800000000000043        0                        0                        0                        0.3179933974238807       333.15
0.5800000000000042        0.019999999999999542     -0.03723659719815809     -4.0602793503835446E-4   0.31798335208077405      329.04286163483005
0                         0.5999999999999992       1                        0                        0.15567395684600055      293.15
0.020000000000004004      0.5999999999999992       0.9999797806271756       0.008340334349972035     0.1556828605618648       293.15001122409666
0.6000000000000041        0                        0                        0                        0.3181819833535949       333.15
0.600000000000004         0.01999999999999953      -0.03709994352013624     1.0846715714705183E-4    0.3182057161185177       329.01644991698174
0                         0.6199999999999992       1                        0                        0.1473484083502599       293.15
0.020000000000003803      0.6199999999999992       1.0000683599147926       0.008352951827006412     0.14733286984121052      293.149936702798
0.6200000000000039        0                        0                        0                        0.318301945260494        333.15
0.6200000000000039        0.01999999999999951      -0.03799379428530372     7.345904935415256E-4     0.31836615102887633      328.9469446819622
0                         0.6399999999999991       1                        0                        0.13887094526556723      293.15
0.020000000000003605      0.6399999999999991       0.999604975589294        0.008255197148502412     0.13907172273718474      293.15037522191574
0.6400000000000037        0                        0                        0                        0.3183754052459847       333.15
0.6400000000000035        0.019999999999999497     -0.040094562746925536    0.001452179773366727     0.3184851744335018       328.8197628427044
0                         0.6599999999999991       1                        0                        0.13116571807482197      293.15
0.020000000000003404      0.6599999999999991       1.0035524337754615       0.006058635979096195     0.1305269346362504       293.14762421372865
0.6600000000000035        0                        0                        0                        0.31843197411664714      333.15
0.6600000000000034        0.019999999999999483     -0.04352839111052129     0.002230796386028102     0.31858973760519266      328.6296441675727
0                         0.679999999999999        1                        0                        0.11529654035326718      293.15
0.020000000000003203      0.679999999999999        0.9691048650714229       0.015999472756833187     0.12350090968068904      293.167889549908
0.6800000000000033        0                        0                        0                        0.31851143951668537      333.15
0.6800000000000032        0.019999999999999466     -0.04834171582122928     0.003021018410456721     0.318715323330655        328.3766735021148
0                         0.7                      0.5                      0                        0.10089829468068871      293.15
0.020000000000002998      0.7                      0.5088387925067711       0.02379215829150261      0.10509439913226468      293.00291264485924
0.7000000000000031        0                        0                        0                        0.3186673886238746       333.15
0.7000000000000028        0.019999999999999452     -0.05445520777127781     0.0037439948304867       0.31890894937557257      328.0663632618048
0                         0.72                     0                        0                        0.09917718120168656      293.15
0.020000000000002804      0.72                     0.08951537889170783      -0.021212094261339992    0.10304034936440142      296.23231564509115
0.7200000000000029        0                        0                        0                        0.31897030789396474      333.15
0.7200000000000026        0.01999999999999943      -0.061603527392007876    0.004282945368930228     0.31923197107846124      327.7102979978186
0                         0.74                     0                        0                        0.10566959578108738      293.15
0.020000000000002603      0.74                     -0.010141997202200095    -0.05893624624166982     0.10788464520167454      302.6437217529523
0.7400000000000027        0                        0                        0                        0.31950737180788397      333.15
0.7400000000000025        0.01999999999999942      -0.06927359595934757     0.0044836895793454595    0.3197605147315544       327.3263150974543
0                         0.76                     0                        0                        0.11134311740814816      293.15
0.0200000000000024        0.7599999999999999       -0.007436144585976491    -0.05095411102427304     0.11095491497565091      303.8450161402114
0.7600000000000025        0                        0                        0                        0.3203747922471806       333.15
0.7600000000000025        0.019999999999999407     -0.07666653978856797     0.004171067233766978     0.32058024658013395      326.9392233843659
0                         0.78                     0                        0                        0.11311401825620586      293.15
0.020000000000002204      0.78                     -0.005791726028653835    -0.04028249983420131     0.11284566346626032      303.7331992585624
0.7800000000000022        0                        0                        0                        0.321658511926962        333.15
0.7800000000000021        0.019999999999999386     -0.08271498665576282     0.0031862994939725973    0.3217712572313086       326.5811722983419
0                         0.8                      0                        0                        0.11421826208410198      293.15
0.020000000000002002      0.8                      -0.004503537093483759    -0.03166605740208561     0.11395629976462404      303.54975964164606
0.800000000000002         0                        0                        0                        0.3234012938900431       333.15
0.800000000000002         0.019999999999999376     -0.0861876304760719      0.001444071355284179     0.32338022603428845      326.30031919305554
0                         0.8200000000000001       0                        0                        0.11491513281766581      293.15
0.0200000000000018        0.8200000000000001       -0.003726213569763563    -0.0245804218750692      0.11469290995980239      303.39335970998343
0.8200000000000018        0                        0                        0                        0.3255611956667464       333.15
0.8200000000000018        0.019999999999999362     -0.08589466639129693     -9.986829734329994E-4    0.3253819405982444       326.1589896866632
0                         0.8400000000000001       0                        0                        0.1153657830250979       293.15
0.020000000000001603      0.8400000000000001       -0.0031580215906749512   -0.018571523639767804    0.11517416528480795      303.25280189793267
0.8400000000000016        0                        0                        0                        0.32797723774636095      333.15
0.8400000000000016        0.01999999999999934      -0.08098214258157861     -0.00388201972862059     0.32764282910861403      326.2004798588551
0                         0.8600000000000001       0                        0                        0.11563524471332737      293.15
0.020000000000001402      0.8600000000000001       -0.0026620912370390096   -0.013452241411766567    0.11547212798566281      303.13166496936344
0.8600000000000014        0                        0                        0                        0.3303684404645097       333.15
0.8600000000000014        0.01999999999999933      -0.07125862037455827     -0.0067189664835164324   0.32991193057915225      326.45785156587084
0                         0.8800000000000002       0                        0                        0.11576762096838117      293.15
0.0200000000000012        0.8800000000000002       -0.0021781270140217965   -0.009170914011118619    0.11563242656586112      303.0527817648325
0.8800000000000012        0                        0                        0                        0.33239082355614735      333.15
0.8800000000000013        0.01999999999999931      -0.05746349297874985     -0.008850981796897087    0.3318671802657284       326.9593023623212
0                         0.9000000000000002       0                        0                        0.11579939134119419      293.15
0.020000000000001007      0.9000000000000002       -0.0016912628487743726   -0.005730177826983701    0.11569243881167506      303.0823500395816
0.900000000000001         0                        0                        0                        0.3337510030659593       333.15
0.900000000000001         0.019999999999999296     -0.04134141637254033     -0.009631845050479771    0.3332231935097231       327.7096555156231
0                         0.9200000000000003       0                        0                        0.11576387295919538      293.15
0.020000000000000802      0.9200000000000003       -0.0012083732749303884   -0.003135325637067601    0.11568514008687154      303.3702813003533
0.9200000000000008        0                        0                        0                        0.3343303072883822       333.15
0.9200000000000008        0.019999999999999286     -0.02538738764145601     -0.008714158027379288    0.33385850294140174      328.68740635426855
0                         0.9400000000000003       0                        0                        0.11569184356618681      293.15
0.0200000000000006        0.9400000000000003       -7.461939052311922E-4    -0.0013685981109033188   0.11564022898878655      304.25719817292884
0.9400000000000006        0                        0                        0                        0.3342450288342907       333.15
0.9400000000000005        0.019999999999999265     -0.012225782197392274    -0.006293612240718015    0.33388058358064554      329.81011067804013
0                         0.9600000000000003       0                        0                        0.1156123811338289       293.15
0.0200000000000004        0.9600000000000002       -3.2875985787199054E-4   -3.730829106021287E-4    0.11558428149823519      306.61994321676076
0.9600000000000004        0                        0                        0                        0.33380048291861764      333.15
0.9600000000000004        0.019999999999999244     -0.003765413217822006    -0.0031190714480592873   0.3335724163522335       330.96144516244703
0                         0.9800000000000004       0                        0                        0.11555699748335592      293.15
0.0200000000000002        0.9800000000000005       -1.388742783260332E-5    -1.379923320816581E-5    0.11554171248340894      314.13361493143543
0.9800000000000002        0                        0                        0                        0.3333920189923065       333.15
0.9800000000000002        0.01999999999999924      -3.2983788220312005E-4   -3.525414089473082E-4    0.33325823080385053      332.0764091808951
0                         1                        0                        0                        0.11554206987914872      313.15
0.02                      1                        0                        0                        0.1155278064513545       333.15
1                         0                        0                        0                        0.33326642576346416      333.15
1                         0.01999999999999922      0                        0                        0.3331442038893103       333.15
0.04000000000000021       0.9800000000000003       -3.253498616528421E-4    -2.7112534864074506E-4   0.11549743676355341      323.58106746122206
0.04                      1                        0                        0                        0.11547624168112736      333.15
0.9800000000000001        0.03999999999999926      -0.0022888022903044787   -0.0031707592589573434   0.3329086597635618       331.0379675824053
1                         0.03999999999999924      0                        0                        0.33272474573070837      333.15
0.06000000000000019       0.9800000000000004       -0.0010641064927840772   -5.077139450022397E-4    0.11543769236931324      327.5825284646187
0.06                      1                        0                        0                        0.11540357521703853      333.15
0.9800000000000002        0.059999999999999276     -0.0042470481574553584   -0.009444386494991491    0.33241425449088274      330.019049287533
1                         0.059999999999999255     0                        0                        0.3320949119340259       333.15
0.08000000000000018       0.9800000000000004       -0.0021519285386644056   -6.65861730696593E-4     0.11537503149702709      329.66609160221714
0.07999999999999999       1                        0                        0                        0.11533020399067521      333.15
0.9800000000000002        0.07999999999999931      -0.006334889681078306    -0.01940858809281065     0.33180324647947557      328.96665111651237
1                         0.07999999999999928      0                        0                        0.33133213118577676      333.15
0.10000000000000016       0.9800000000000005       -0.0034681028359346664   -7.60596699175011E-4     0.11531404603915386      330.70776687665193