% Model:              steadyNS+传热1.mph
% Version:            COMSOL 5.6.0.341
% Date:               Apr 21 2022, 15:07
% Dimension:          2
% Nodes:              2601
% Expressions:        4
% Description:        速度场，x 分量, 速度场，y 分量, 压力, 温度
% Length unit:        null
% x                       y                        u                        v                        p                        T
0                         0                        0                        0                        0.30683541636249506      313.15
0.02000000000001001       0                        0                        0                        0.30676199263278897      333.15
0                         0.019999999999999993     0                        0                        0.30691133347464383      293.15
0.02000000000000981       0.01999999999999998      -7.436497231573656E-4    7.347849018806539E-4     0.3068316698211332       317.76131034659676
0                         0.03999999999999999      0                        0                        0.3070723944603919       293.15
0.02000000000000961       0.03999999999999997      -0.002198537003269615    0.0034417148799220413    0.3069354699235816       313.8071578717511
0.040000000000009805      0                        0                        0                        0.30660649771118365      333.15
0.04000000000000962       0.019999999999999962     -0.003101415844255501    0.0017481557976042803    0.3067087011395552       328.1560183963625
0                         0.05999999999999998      0                        0                        0.30716029378270654      293.15
0.020000000000009406      0.059999999999999956     -0.0036380753624919693   0.008589429447107192     0.3069469094427621       313.79597142992077
0.0600000000000096        0                        0                        0                        0.30648022332812136      333.15
0.0600000000000094        0.01999999999999995      -0.00672209396082127     0.002226297531649581     0.306617553588715        330.0746356944576
0                         0.07999999999999996      0                        0                        0.30701865412951673      293.15
0.02000000000000921       0.07999999999999995      -0.004948501822379029    0.016059952935116494     0.3067373718611501       314.1741768010056
0.0800000000000094        0                        0                        0                        0.3064251667320239       333.15
0.08000000000000919       0.019999999999999934     -0.01085162362975936     0.0023325549020070976    0.30657551078514916      329.59933525574
0                         0.09999999999999995      0                        0                        0.3065061243702036       293.15
0.02000000000000901       0.09999999999999994      -0.006109408758062959    0.025567794993471504     0.3061639079775732       314.3604408490126
0.10000000000000919       0                        0                        0                        0.30643271615455386      333.15
0.10000000000000904       0.019999999999999917     -0.015026931629062601    0.0022793885266341094    0.30658240368990025      328.91716730526474
0                         0.11999999999999994      0                        0                        0.3054264634861667       293.15
0.02000000000000881       0.11999999999999993      -0.007278001516581468    0.03685540388107057      0.3050734038673465       314.45723911064186
0.12000000000000899       0                        0                        0                        0.30649332995570344      333.15
0.12000000000000881       0.0199999999999999       -0.01905574029384545     0.0021754138769590056    0.3066363235853301       328.3367412331638
0                         0.1399999999999999       0                        0                        0.30356013832859413      293.15
0.020000000000008608      0.1399999999999999       -0.008316647741826473    0.049638453601517696     0.30309054149100484      314.40015843539476
0.14000000000000878       0                        0                        0                        0.30660447657490714      333.15
0.14000000000000856       0.019999999999999882     -0.02287340514987769     0.0020549880289662623    0.3067386401067987       327.83228609885686
0                         0.1599999999999999       0                        0                        0.2978277641238084       293.15
0.020000000000008407      0.1599999999999999       -0.01034018056238807     0.05876518995003428      0.2999305773491914       314.9321256912053
0.16000000000000858       0                        0                        0                        0.30676766940284916      333.15
0.1600000000000084        0.019999999999999872     -0.026454968077175983    0.0019248345190977718    0.30689227359487875      327.38563726287185
0                         0.17999999999999985      0                        0                        0.29175095315986127      293.15
0.02000000000000821       0.17999999999999983      0.08772396329028719      0.02379507004914463      0.29529006788149054      298.1244241131007
0.18000000000000838       0                        0                        0                        0.30698498788326256      333.15
0.18000000000000824       0.019999999999999858     -0.029786062199990172    0.0017873923677949692    0.30709977876217986      326.9851354574347
0                         0.2                      0.5                      0                        0.29243119001551116      293.15
0.02000000000000801       0.2                      0.5034027207919372       -0.01470458489005901     0.2963967793892821       292.9150642887651
0.20000000000000817       0                        0                        0                        0.3072574983762571       333.15
0.20000000000000798       0.019999999999999844     -0.03285882466634522     0.0016463707138746262    0.3073624815680962       326.6233846265633
0                         0.21999999999999997      1                        0                        0.29773733192153423      293.15
0.020000000000007814      0.21999999999999997      0.9676325847661594       -0.0016660769658786649   0.305555865012549        293.16869557760214
0.22000000000000797       0                        0                        0                        0.3075850438555356       333.15
0.22000000000000777       0.01999999999999982      -0.03567253625190417     0.0015059829674321718    0.30768042961066316      326.2951531427902
0                         0.23999999999999994      1                        0                        0.29721872481084566      293.15
0.02000000000000761       0.2399999999999999       1.0044005033393646       0.009612031962706461     0.29618695233184594      293.14707691667167
0.24000000000000776       0                        0                        0                        0.307966583649983        333.15
0.24000000000000765       0.019999999999999806     -0.038232658640451646    0.0013693650887335268    0.3080526994301494       325.9962785264714
0                         0.2599999999999999       1                        0                        0.2886939374910666       293.15
0.020000000000007408      0.2599999999999999       0.9995861093659844       0.007460346207921589     0.28878213671444375      293.1503940876124
0.26000000000000756       0                        0                        0                        0.30840063631943343      333.15
0.2600000000000074        0.019999999999999792     -0.04054774199254191     0.0012374552105211037    0.30847778704846407      325.72328652811956
0                         0.27999999999999986      1                        0                        0.28136180458566634      293.15
0.020000000000007206      0.2799999999999998       1.0000762978871247       0.007446531582067576     0.2813426281520528       293.1499389937766
0.28000000000000735       0                        0                        0                        0.3088856346453441       333.15
0.2800000000000072        0.019999999999999775     -0.042624938416022044    0.0011083711272617505    0.3089539358781849       325.47342103542013
0                         0.2999999999999998       1                        0                        0.2739374156303375       293.15
0.02000000000000701       0.2999999999999998       0.9999744766814548       0.00742824661287483      0.2739586533221396       293.15001067570677
0.30000000000000715       0                        0                        0                        0.30942009065855386      333.15
0.300000000000007         0.01999999999999976      -0.044464962859983005    9.77268766376926E-4      0.3094793089628288       325.24490538340285
0                         0.3199999999999998       1                        0                        0.26650221744435176      293.15
0.020000000000006807      0.3199999999999998       0.9999795604093322       0.007463216490374094     0.26652063262357706      293.1499975668957
0.32000000000000695       0                        0                        0                        0.3100024966090405       333.15
0.3200000000000069        0.019999999999999747     -0.04605743830254242     8.367700424283193E-4     0.3100519356778318       325.0372745445956
0                         0.33999999999999975      1                        0                        0.2590130765676569       293.15
0.020000000000006606      0.33999999999999975      0.9999722327670365       0.007516931489161366     0.2590358639120235       293.1500006227589
0.34000000000000674       0                        0                        0                        0.31063091558766737      333.15
0.34000000000000663       0.01999999999999973      -0.04737772234793034     6.780630620880703E-4     0.3106693893350974       324.85168045856324
0                         0.35999999999999965      1                        0                        0.2514655942367103       293.15
0.020000000000006405      0.35999999999999965      0.9999701980843404       0.007578994448651589     0.25149011146430317      293.1499998417642
0.36000000000000654       0                        0                        0                        0.3113022639290611       333.15
0.3600000000000064        0.019999999999999716     -0.048386402988126624    4.927094168856794E-4     0.31132819407439016      324.69107338994286
0                         0.37999999999999967      1                        0                        0.24385321249869252      293.15
0.020000000000006207      0.3799999999999997       0.9999688755289813       0.007645515139535387     0.2438786815945169       293.1500000401843
0.38000000000000633       0                        0                        0                        0.3120113614429073       333.15
0.38000000000000633       0.019999999999999702     -0.04903254962134211     2.7505898064695015E-4    0.3120230223065862       324.56015520879936
0                         0.39999999999999963      1                        0                        0.23617307215022096      293.15
0.020000000000006006      0.39999999999999963      0.9999683462706297       0.00771410725693691      0.2361989505270417       293.14999998981625
0.40000000000000613       0                        0                        0                        0.31274992231137716      333.15
0.400000000000006         0.019999999999999678     -0.04926139899974522     2.4965818478910602E-5    0.3127458263907517       324.46502136869293
0                         0.41999999999999954      1                        0                        0.2284237930704732       293.15
0.020000000000005805      0.41999999999999954      0.999968168194009        0.007783564581091766     0.22844979974316001      293.15000000251786
0.4200000000000059        0                        0                        0                        0.3135057613020345       333.15
0.4200000000000058        0.01999999999999967      -0.049026351511261314    -2.497667290834712E-4    0.31348513869125283      324.4120449434635
0                         0.43999999999999956      1                        0                        0.22060492771626944      293.15
0.020000000000005604      0.4399999999999996       0.9999682360434952       0.007853175834004666     0.22063087311410617      293.1499999996084
0.4400000000000057        0                        0                        0                        0.3142625540324114       333.15
0.4400000000000055        0.01999999999999965      -0.04830397558562687     -5.32010416050983E-4     0.3142258376260437       324.4020880170276
0                         0.45999999999999946      1                        0                        0.21271657932811378      293.15
0.020000000000005402      0.45999999999999946      0.9999684727587127       0.007922482179845647     0.2127423296714518       293.1499999991792
0.4600000000000055        0                        0                        0                        0.3150004595267742       333.15
0.46000000000000546       0.01999999999999964      -0.047109388140127904    -7.958209132878723E-4    0.3149496651449992       324.43569837039274
0                         0.4799999999999994       1                        0                        0.20475925110984403      293.15
0.020000000000005205      0.4799999999999994       0.9999688574623561       0.00799113011231263      0.20478468762685093      293.1500000036328
0.4800000000000053        0                        0                        0                        0.31569773927026507      333.15
0.4800000000000052        0.019999999999999626     -0.04550843820609606     -0.0010092908646650025   0.31563664277242         324.51101756059086
0                         0.49999999999999944      1                        0                        0.19673379935485158      293.15
0.020000000000005007      0.49999999999999944      0.9999694281948827       0.008058769885127824     0.1967587828410528       293.1499999863399
0.5000000000000051        0                        0                        0                        0.31633320269708465      333.15
0.500000000000005         0.01999999999999961      -0.043623128615589486    -0.0011394368859867702   0.31626726605069827      324.6205980845734
0                         0.5199999999999994       1                        0                        0.18864150530894502      293.15
0.020000000000004806      0.5199999999999994       0.9999702363612191       0.00812491723686393      0.18866581573865207      293.15000005081595
0.5200000000000049        0                        0                        0                        0.3168889794920727       333.15
0.5200000000000048        0.019999999999999588     -0.04162813005557232     -0.0011578635425753096   0.31682504807925627      324.7510921317706
0                         0.5399999999999994       1                        0                        0.18048431830369321      293.15
0.020000000000004604      0.5399999999999994       0.9999716919036319       0.008188826856612888     0.18050757643575324      293.14999981122577
0.5400000000000047        0                        0                        0                        0.31735293646753326      333.15
0.5400000000000045        0.019999999999999574     -0.03973879512409044     -0.001045367809945595    0.31729878574720727      324.8828643381253
0                         0.5599999999999993       1                        0                        0.17226543529778152      293.15
0.020000000000004403      0.5599999999999993       0.9999735576450404       0.008248745496478277     0.17228679052785548      293.1500007007376
0.5600000000000045        0                        0                        0                        0.3177201545609456       333.15
0.5600000000000042        0.019999999999999563     -0.038193760764552054    -7.939678306396565E-4    0.3176839841099338       324.99008695188724
0                         0.5799999999999992       1                        0                        0.16399135766754291      293.15
0.020000000000004205      0.5799999999999992       0.9999806091446357       0.008302751355047582     0.16400823842507511      293.14999736034696
0.5800000000000043        0                        0                        0                        0.3179932515118596       333.15
0.5800000000000042        0.019999999999999542     -0.03723656279727114     -4.060302036847526E-4    0.31798320601758717      325.0463964482779
0                         0.5999999999999992       1                        0                        0.1556738323751101       293.15
0.020000000000004004      0.5999999999999992       0.9999797806127398       0.008340332650569316     0.15568273584862352      293.15001073528566
0.6000000000000041        0                        0                        0                        0.31818183584739834      333.15
0.600000000000004         0.01999999999999953      -0.03709990647800725     1.0846577766173419E-4    0.31820556852374154      325.03604202691105
0                         0.6199999999999992       1                        0                        0.14734828438003864      293.15
0.020000000000003803      0.6199999999999992       1.0000683588780417       0.008352951881047937     0.14733274629505755      293.1499469700877
0.6200000000000039        0                        0                        0                        0.318301795830243        333.15
0.6200000000000039        0.01999999999999951      -0.03799375676243322     7.345905196903739E-4     0.3183660016027193       324.9298217312745
0                         0.6399999999999991       1                        0                        0.13887082139052717      293.15
0.020000000000003605      0.6399999999999991       0.9996049764073692       0.008255195780449484     0.13907159931786178      293.1502935511384
0.6400000000000037        0                        0                        0                        0.3183752535873447       333.15
0.6400000000000035        0.019999999999999497     -0.04009452761023395     0.0014521814930900411    0.31848502290549335      324.6876208248417
0                         0.6599999999999991       1                        0                        0.13116559440315734      293.15
0.020000000000003404      0.6599999999999991       1.0035524352060534       0.006058632062971242     0.1305268104996109       293.1482217121777
0.6600000000000035        0                        0                        0                        0.31843181996845776      333.15
0.6600000000000034        0.019999999999999483     -0.04352836148164815     0.0022307999081002078    0.3185895837411331       324.3027199556711
0                         0.679999999999999        1                        0                        0.11529641743514112      293.15
0.020000000000003203      0.679999999999999        0.9691048643160991       0.015999470654674153     0.12350078604326205      293.1620922071893
0.6800000000000033        0                        0                        0                        0.3185112827554811       333.15
0.6800000000000032        0.019999999999999466     -0.048341694679686804    0.0030210239001401207    0.318715166990414        323.77700670743815
0                         0.7                      0.5                      0                        0.10089817231761372      293.15
0.020000000000002998      0.7                      0.5088387915861067       0.023792157655217597     0.10509427684496382      292.99908853846057
0.7000000000000031        0                        0                        0                        0.31866722944059134      333.15
0.7000000000000028        0.019999999999999452     -0.05445519790558595     0.0037440023066728605    0.31890879070551026      323.1211211288544
0                         0.72                     0                        0                        0.09917705890667236      293.15
0.020000000000002804      0.72                     0.08951537856675681      -0.021212094296756606    0.10304022711689385      296.906930308987
0.7200000000000029        0                        0                        0                        0.3189701469692367       333.15
0.7200000000000026        0.01999999999999943      -0.061603530924857354    0.004282954425253479     0.3192318106767954       322.3568147350122
0                         0.74                     0                        0                        0.10566947342770541      293.15
0.020000000000002603      0.74                     -0.010141996578025964    -0.05893624603713526     0.10788452288025817      310.30412476322624
0.7400000000000027        0                        0                        0                        0.31950721028130136      333.15
0.7400000000000025        0.01999999999999942      -0.06927361431726867     0.004483699418776658     0.3197603536667472       321.51971603076527
0                         0.76                     0                        0                        0.111342995127385        293.15
0.0200000000000024        0.7599999999999999       -0.007436144723942989    -0.05095411110259557     0.11095479271947598      309.5486959636846
0.7600000000000025        0                        0                        0                        0.32037463150315243      333.15
0.7600000000000025        0.019999999999999407     -0.07666657341315773     0.004171077020125928     0.32058008616171574      320.66624510731685
0                         0.78                     0                        0                        0.1131138960029217       293.15
0.020000000000002204      0.78                     -0.005791726036190015    -0.040282499878604       0.11284554121165927      309.2824379805243
0.7800000000000022        0                        0                        0                        0.32165835319436076      333.15
0.7800000000000021        0.019999999999999386     -0.08271503545894851     0.003186308100432629     0.321771098664584        319.8761776596252
0                         0.8                      0                        0                        0.1142181398232771       293.15
0.020000000000002002      0.8                      -0.004503537053295415    -0.03166605748040827     0.1139561775049376       309.07011067762534
0.800000000000002         0                        0                        0                        0.32340113782398383      333.15
0.800000000000002         0.019999999999999376     -0.08618769275404518     0.0014440773975745733    0.32338006999180413      319.26423502056497
0                         0.8200000000000001       0                        0                        0.1149150105550107       293.15
0.0200000000000018        0.8200000000000001       -0.0037262135345094024   -0.024580422015255277    0.11469278769886532      308.9425846457975
0.8200000000000018        0                        0                        0                        0.325561042140474        333.15
0.8200000000000018        0.019999999999999362     -0.08589473855654765     -9.986805782522157E-4    0.32538178696873027      318.96459068640127
0                         0.8400000000000001       0                        0                        0.11536566076555985      293.15
0.020000000000001603      0.8400000000000001       -0.003158021570388325    -0.018571523826273993    0.11517404302616062      308.78498560034996
0.8400000000000016        0                        0                        0                        0.32797708595602293      333.15
0.8400000000000016        0.01999999999999934      -0.08098221902652948     -0.003882021263361507    0.32764267717269463      319.0606701958634
0                         0.8600000000000001       0                        0                        0.11563512245934854      293.15
0.020000000000001402      0.8600000000000001       -0.0026620912336073415   -0.013452241617699817    0.11547200573176394      308.5510033860509
0.8600000000000014        0                        0                        0                        0.33036828938289003      333.15
0.8600000000000014        0.01999999999999933      -0.07125869381497352     -0.006718971717482256    0.3299117793267503       319.61557846554587
0                         0.8800000000000002       0                        0                        0.11576749872065853      293.15
0.0200000000000012        0.8800000000000002       -0.0021781270254430593   -0.009170914209669132    0.11563230431748393      308.22144172577674
0.8800000000000012        0                        0                        0                        0.33239067233712016      333.15
0.8800000000000013        0.01999999999999931      -0.057463556259549596    -0.008850989455097547    0.33186702884698827      320.7017447240832
0                         0.9000000000000002       0                        0                        0.11579926909895184      293.15
0.020000000000001007      0.9000000000000002       -0.001691262871049126    -0.005730177996113478    0.11569231656823814      307.8205737937453
0.900000000000001         0                        0                        0                        0.3337508513786014       333.15
0.900000000000001         0.019999999999999296     -0.041341464365537955    -0.00963185323784611     0.3332230415782722       322.34079840145944
0                         0.9200000000000003       0                        0                        0.11576375072071525      293.15
0.020000000000000802      0.9200000000000003       -0.0012083733026709634   -0.0031353257625641763   0.11568501784691257      307.46126637060416
0.9200000000000008        0                        0                        0                        0.33433015535570393      333.15
0.9200000000000008        0.019999999999999286     -0.025387419271881463    -0.008714165391319873    0.3338583506781083       324.4826957959138
0                         0.9400000000000003       0                        0                        0.11569172132937848      293.15
0.0200000000000006        0.9400000000000003       -7.461939323556784E-4    -0.001368598188316909    0.11564010675051857      307.46126459206045
0.9400000000000006        0                        0                        0                        0.33424487700922667      333.15
0.9400000000000005        0.019999999999999265     -0.012225799954594873    -0.006293618381410754    0.3338804314002086       326.9018221407308
0                         0.9600000000000003       0                        0                        0.11561225889679158      293.15
0.0200000000000004        0.9600000000000002       -3.287598783114276E-4    -3.730829459365482E-4    0.11558415926007934      308.7234950665042
0.9600000000000004        0                        0                        0                        0.33380033123634606      333.15
0.9600000000000004        0.019999999999999244     -0.0037654211387087235   -0.003119076042969843    0.33357226440173965      329.22675662942464
0                         0.9800000000000004       0                        0                        0.11555687524507899      293.15
0.0200000000000002        0.9800000000000005       -1.3887436537913969E-5   -1.3799241871598233E-5   0.11554159024440004      315.06834071469933
0.9800000000000002        0                        0                        0                        0.33339186721137376      333.15
0.9800000000000002        0.01999999999999924      -3.298400296666624E-4    -3.5254365289860164E-4   0.33325807886733283      331.29448115742696
0                         1                        0                        0                        0.11554194764014926      313.15
0.02                      1                        0                        0                        0.11552768421162739      333.15
1                         0                        0                        0                        0.3332662738510346       333.15
1                         0.01999999999999922      0                        0                        0.3331440518387706       333.15
0.04000000000000021       0.9800000000000003       -3.253498965748816E-4    -2.711253683647509E-4    0.11549731452364798      325.13541512056804
0.04                      1                        0                        0                        0.11547611944007036      333.15
0.9800000000000001        0.03999999999999926      -0.0022888055126518434   -0.003170766122901749    0.33290850777341524      329.58215367856906
1                         0.03999999999999924      0                        0                        0.3327245935621586       333.15
0.06000000000000019       0.9800000000000004       -0.001064106569605443    -5.077139719397385E-4    0.11543757012919126      329.0007879115002
0.06                      1                        0                        0                        0.1154034529752607       333.15
0.9800000000000002        0.059999999999999276     -0.004247051484427128    -0.0094443984615468      0.33241410275934585      327.8051533767418
1                         0.059999999999999255     0                        0                        0.33209475999390187      333.15
0.08000000000000018       0.9800000000000004       -0.0021519286681056155   -6.658617624792928E-4    0.11537490925763011      330.2875039180182
0.07999999999999999       1                        0                        0                        0.1153300817492603       333.15
0.9800000000000002        0.07999999999999931      -0.006334892970843138    -0.019408604603216313    0.3318030954887856       325.774818360581
1                         0.07999999999999928      0                        0                        0.3313319800343979       333.15
0.10000000000000016       0.9800000000000005       -0.0034681030259464873   -7.605967349611671E-4    0.11531392380153964      330.351848249864