% Model:              steadyNS.mph
% Version:            COMSOL 5.6.0.341
% Date:               Mar 15 2022, 21:59
% Dimension:          2
% Nodes:              2601
% Expressions:        3
% Description:        速度场，x 分量, 速度场，y 分量, 压力
% Length unit:        null
% x                       y                        u                        v                        p
0                         0                        0                        0                        0.5379251369071483
0.02000000000001001       0                        0                        0                        0.5377033939282962
0                         0.019999999999999993     0                        0                        0.5381526408596479
0.020000000000009812      0.020000000000000195     -0.001297912533864657    0.0012871074675348596    0.5379161906546422
0                         0.03999999999999999      0                        0                        0.5385740569147074
0.02000000000000961       0.040000000000000174     -0.0033501854941682644   0.005523874724093369     0.5381766093853436
0.040000000000009805      0                        0                        0                        0.5372955636518632
0.04000000000000959       0.020000000000000392     -0.005115603769766656    0.0028105240177599563    0.5376086118078716
0                         0.05999999999999998      0                        0                        0.5387116971945922
0.020000000000009416      0.06000000000000016      -0.005136114099230294    0.012995883140887426     0.5381161721755435
0.0600000000000096        0                        0                        0                        0.5370737393656835
0.06000000000000941       0.02000000000000059      -0.010739134223969698    0.0034335192402030383    0.5374795919123962
0                         0.07999999999999996      0                        0                        0.5381857815453825
0.02000000000000921       0.08000000000000015      -0.006606187381758343    0.023225411661033632     0.5374327298167616
0.0800000000000094        0                        0                        0                        0.5371609334827836
0.08000000000000923       0.020000000000000795     -0.016879376507506608    0.0034159240518574358    0.5375826231033073
0                         0.09999999999999995      0                        0                        0.5366828588018753
0.02000000000000901       0.10000000000000013      -0.007810728220509891    0.035646640701088236     0.5358131580154215
0.10000000000000919       0                        0                        0                        0.5375198728925348
0.10000000000000904       0.020000000000000996     -0.02270370801273596     0.003084108574828651     0.537909787085996
0                         0.11999999999999994      0                        0                        0.533749138783662
0.020000000000008806      0.12000000000000012      -0.008880092298826038    0.04973664287728066      0.5328968432331821
0.12000000000000899       0                        0                        0                        0.538097346036785
0.12000000000000881       0.0200000000000012       -0.027826731773917996    0.0026370922544841128    0.5384337445980699
0                         0.1399999999999999       0                        0                        0.528674317322795
0.020000000000008608      0.14000000000000004      -0.009532608438662705    0.06460512166558569      0.5278140309233492
0.14000000000000878       0                        0                        0                        0.5388515758808646
0.14000000000000862       0.020000000000001402     -0.03212281827814465     0.0021671721566761375    0.5391282266458325
0                         0.1599999999999999       0                        0                        0.5136269375975563
0.02000000000000841       0.16000000000000006      -0.007698572867277725    0.07052586734365024      0.5193643332628736
0.16000000000000858       0                        0                        0                        0.5397506372350076
0.1600000000000084        0.0200000000000016       -0.03558449328501356     0.0017113597960411327    0.5399685289669178
0                         0.17999999999999985      0                        0                        0.49638064064801757
0.02000000000000821       0.18000000000000002      0.1032312503391459       0.02371361867542472      0.5095282561273505
0.18000000000000838       0                        0                        0                        0.5407665332688825
0.1800000000000082        0.020000000000001798     -0.038252759904793474    0.0012846584214739067    0.5409296090357741
0                         0.2                      0.5                      0                        0.5041029698707153
0.02000000000000801       0.20000000000000018      0.5005478885800739       -0.02121059765211073     0.5142842785795019
0.20000000000000817       0                        0                        0                        0.5418719660974216
0.200000000000008         0.020000000000001995     -0.04018896110449768     8.942896392381753E-4     0.5419853110435696
0                         0.22                     1                        0                        0.512468394533255
0.02000000000000781       0.22000000000000014      0.9435153014821348       0.006014624146848989     0.5250339991549793
0.22000000000000797       0                        0                        0                        0.5430397833846113
0.22000000000000774       0.020000000000002197     -0.04146404933032338     5.443064069272033E-4     0.5431089207416455
0                         0.24000000000000005      1                        0                        0.49921026040913175
0.02000000000000761       0.2400000000000002       1.0060310789851712       0.030516314360477814     0.4969074506444254
0.24000000000000776       0                        0                        0                        0.544243661265233
0.2400000000000076        0.020000000000002398     -0.042153846879572396    2.369859948097741E-4     0.5442742633265746
0                         0.26000000000000006      1                        0                        0.4686116640953002
0.020000000000007408      0.26000000000000023      0.9992826091409815       0.028764252966346257     0.46913023589627
0.26000000000000756       0                        0                        0                        0.5454590514165689
0.2600000000000074        0.0200000000000026       -0.042336462084280636    -2.6543638073981106E-5   0.5454568044499398
0                         0.28                     1                        0                        0.4399901316367458
0.020000000000007206      0.2800000000000001       0.9995979368720868       0.029326482437646993     0.4403535245367308
0.28000000000000735       0                        0                        0                        0.5466640096326792
0.2800000000000072        0.020000000000002793     -0.04209074493418117     -2.459054233561474E-4    0.5466345398677288
0                         0.3000000000000001       1                        0                        0.4102150723532925
0.02000000000000701       0.3000000000000002       0.9994722588112184       0.030283414866752536     0.4106302684687477
0.30000000000000715       0                        0                        0                        0.5478398264853849
0.300000000000007         0.020000000000002995     -0.041495263367522746    -4.2130019795261247E-4   0.5477886441443184
0                         0.3200000000000001       1                        0                        0.37939104530205886
0.020000000000006807      0.3200000000000002       0.9994293403440894       0.03138089641911558      0.3798349680705604
0.32000000000000695       0                        0                        0                        0.5489714719062675
0.32000000000000683       0.0200000000000032       -0.040627348837916806    -5.535713286722174E-4    0.5489039050672376
0                         0.34000000000000014      1                        0                        0.34740541242908113
0.020000000000006606      0.3400000000000002       0.9993844062424905       0.032579686631881544     0.3478836634847362
0.34000000000000674       0                        0                        0                        0.5500478634115484
0.3400000000000066        0.0200000000000034       -0.03956185497233492     -6.444314671915055E-4    0.5499689662275209
0                         0.36000000000000015      1                        0                        0.31417593304860764
0.02000000000000641       0.3600000000000002       0.9993435553532238       0.03386465615842746      0.3146848643919169
0.36000000000000654       0                        0                        0                        0.5510619476932701
0.3600000000000064        0.020000000000003598     -0.038369460172653524    -6.967243301233371E-4    0.550976380081196
0                         0.38000000000000017      1                        0                        0.2796194168126262
0.020000000000006207      0.3800000000000002       0.9993060875103662       0.03523343980022732      0.28015902648916424
0.38000000000000633       0                        0                        0                        0.5520105777608713
0.38000000000000633       0.0200000000000038       -0.037114569293212406    -7.145981130366469E-4    0.5519224661453466
0                         0.4000000000000002       1                        0                        0.24365354897892885
0.020000000000006006      0.40000000000000024      0.9992541400110717       0.03668034938437872      0.24422415044649654
0.40000000000000613       0                        0                        0                        0.5528941793731079
0.400000000000006         0.020000000000004        -0.03585304561371795     -7.035065819019637E-4    0.5528069764276171
0                         0.42000000000000026      1                        0                        0.2062425377042262
0.020000000000005805      0.42000000000000043      0.9993286276144215       0.038194936790648885     0.20680479548971176
0.4200000000000059        0                        0                        0                        0.5537162257276165
0.4200000000000058        0.020000000000004202     -0.034630099651813614    -6.700134097412651E-4    0.5536325890486627
0                         0.4400000000000003       1                        0                        0.16710168373843715
0.020000000000005607      0.44000000000000045      0.9987950726313471       0.03962707518961511      0.1679279146109805
0.4400000000000057        0                        0                        0                        0.5544825660452435
0.4400000000000056        0.0200000000000044       -0.033478652446527125    -6.214340252527813E-4    0.5544042733943173
0                         0.4600000000000003       1                        0                        0.12762193197554525
0.020000000000005406      0.4600000000000004       1.0030615003237129       0.03929722458244913      0.1270501817667958
0.4600000000000055        0                        0                        0                        0.5552006718179381
0.4600000000000054        0.0200000000000046       -0.03241840041386503     -5.653860874821881E-4    0.5551285843861007
0                         0.4800000000000003       1                        0                        0.07019783211997616
0.020000000000005208      0.4800000000000005       0.9516774020845964       0.05560112808611687      0.08487645687541696
0.4800000000000053        0                        0                        0                        0.5558788675233279
0.4800000000000052        0.020000000000004795     -0.03145568038574721     -5.093269423430313E-4    0.5558129453417424
0                         0.5                      0.5                      0                        0.0203766118544575
0.020000000000005007      0.5                      0.5193988360939745       0.06255041875821145      0.03295760917755447
0.5000000000000051        0                        0                        0                        0.5565256015265455
0.500000000000005         0.020000000000005003     -0.030584112205612708    -4.601390152542239E-4    0.5564649688856932
0                         0.5199999999999999       0                        0                        0.008193259154256394
0.020000000000004806      0.5200000000000001       0.11365851741548678      -0.008145554731911682    0.023658457062664118
0.5200000000000049        0                        0                        0                        0.5571487935074502
0.5200000000000048        0.0200000000000052       -0.029785914793056638    -4.237941045693149E-4    0.5570918481766528
0                         0.5399999999999998       0                        0                        0.029275556109990362
0.0200000000000046        0.5399999999999999       -0.004920235529990619    -0.06977653245398277     0.035865524741565
0.5400000000000047        0                        0                        0                        0.5577552746692246
0.5400000000000046        0.020000000000005402     -0.02903376061497375     -4.050973478144119E-4    0.557699833249499
0                         0.5599999999999997       0                        0                        0.04547746237187036
0.020000000000004407      0.5599999999999998       -0.007842947926761318    -0.06855300240087227     0.04508541089686924
0.5600000000000045        0                        0                        0                        0.5583503229543466
0.5600000000000046        0.020000000000005604     -0.028293045004991284    -4.074921439117253E-4    0.5582937950214147
0                         0.5799999999999996       0                        0                        0.0507381745239787
0.020000000000004205      0.5799999999999996       -0.006503231076243177    -0.05780016607600986     0.050314985552465157
0.5800000000000043        0                        0                        0                        0.5589372909643321
0.5800000000000042        0.0200000000000058       -0.02752447870411654     -4.3290323920043013E-4   0.558876875585709
0                         0.5999999999999995       0                        0                        0.05354813514435119
0.020000000000004008      0.5999999999999996       -0.004307295498073723    -0.04920972447002954     0.0531459999270927
0.6000000000000041        0                        0                        0                        0.5595173290586538
0.600000000000004         0.020000000000006003     -0.026686939879189093    -4.8160471286599844E-4   0.559450227592345
0                         0.6199999999999994       0                        0                        0.05508296575711539
0.020000000000003806      0.6199999999999996       -0.0023856251554275378   -0.043769910498334154    0.054841946904163504
0.6200000000000039        0                        0                        0                        0.5600892169450651
0.620000000000004         0.020000000000006204     -0.025740527535766656    -5.521170575498902E-4    0.5600128550225922
0                         0.6399999999999993       0                        0                        0.05604109229111059
0.020000000000003605      0.6399999999999996       -8.899604815277082E-4    -0.04112125559487098     0.05594982283014437
0.6400000000000037        0                        0                        0                        0.560649328989598
0.6400000000000036        0.020000000000006405     -0.024649734303757498    -6.411561245076712E-4    0.5605615781690738
0                         0.6599999999999993       0                        0                        0.05676809549268926
0.020000000000003407      0.6599999999999993       1.8806963135535696E-4    -0.040639374200772904    0.05679533723271396
0.6600000000000035        0                        0                        0                        0.5611917660431586
0.6600000000000035        0.020000000000006603     -0.02338660676869403     -7.436702575051894E-4    0.5610911523776245
0                         0.6799999999999992       0                        0                        0.05745727640119612
0.020000000000003206      0.6799999999999994       8.991086494330007E-4     -0.041680282317621234    0.057564148625382075
0.6800000000000033        0                        0                        0                        0.5617086851180593
0.6800000000000033        0.020000000000006804     -0.021933698509389143    -8.530059787163046E-4    0.5615945688304745
0                         0.6999999999999991       0                        0                        0.05822366010947415
0.020000000000003005      0.699999999999999        0.0012848586134982041    -0.04364978683107167     0.05837078407381029
0.7000000000000031        0                        0                        0                        0.5621908448329376
0.700000000000003         0.020000000000007005     -0.02028656306749634     -9.612346699885365E-4    0.5620635535666042
0                         0.719999999999999        0                        0                        0.059140530449414475
0.020000000000002807      0.7199999999999992       0.0013655543370472668    -0.04599322549532588     0.059289031870587296
0.7200000000000029        0                        0                        0                        0.5626283589495883
0.7200000000000027        0.020000000000007206     -0.0184555009643825      -0.001059652826348152    0.5624892576469286
0                         0.7399999999999989       0                        0                        0.06025304048317927
0.020000000000002606      0.739999999999999        0.00114511565131982      -0.0481725960843463      0.06036503459193825
0.7400000000000027        0                        0                        0                        0.5630116156572235
0.7400000000000027        0.020000000000007404     -0.0164662835030827      -0.001139439283844218    0.5628630995213345
0                         0.7599999999999988       0                        0                        0.061578284409130865
0.020000000000002405      0.7599999999999989       6.271729468949316E-4     -0.049658730978100085    0.06161838351802641
0.7600000000000025        0                        0                        0                        0.5633322829509696
0.7600000000000023        0.020000000000007605     -0.014359636522838086    -0.0011924193706184644   0.563177686118991
0                         0.7799999999999987       0                        0                        0.06309828006176084
0.020000000000002204      0.7799999999999986       -1.648405976530432E-4    -0.049952799588113675    0.06303679630469602
0.7800000000000022        0                        0                        0                        0.5635842894430648
0.780000000000002         0.020000000000007807     -0.012189379708716369    -0.001211854935065189    0.5634277102606163
0                         0.7999999999999986       0                        0                        0.06475213725942386
0.020000000000002006      0.7999999999999988       -0.001169222481744285    -0.04863889785421288     0.06456955224645322
0.800000000000002         0                        0                        0                        0.5637646547882765
0.800000000000002         0.020000000000008008     -0.010019270734298398    -0.0011931579973660797   0.5636107078433493
0                         0.8199999999999985       0                        0                        0.06643388734525651
0.020000000000001805      0.8199999999999986       -0.0022750026473907594   -0.04545901076394465     0.06612538880975592
0.8200000000000018        0                        0                        0                        0.5638740524463394
0.8200000000000018        0.020000000000008206     -0.007918776004542652    -0.001134421781730405    0.5637275661392604
0                         0.8399999999999984       0                        0                        0.06800185200417937
0.020000000000001603      0.8399999999999985       -0.003324400528069584    -0.04039197596823951     0.06758038196043681
0.8400000000000016        0                        0                        0                        0.5639170231572624
0.8400000000000016        0.020000000000008407     -0.005958148107805837    -0.001036682907593781    0.563782707608663
0                         0.8599999999999983       0                        0                        0.06930250755872804
0.020000000000001406      0.8599999999999983       -0.004133207725577576    -0.033710739322069305    0.0687990092759606
0.8600000000000014        0                        0                        0                        0.5639018176851405
0.8600000000000014        0.020000000000008608     -0.004203290060195545    -9.03877313115189E-4     0.5637839288716607
0                         0.8799999999999982       0                        0                        0.0702060378611584
0.020000000000001204      0.8799999999999982       -0.00452878168456025     -0.02599028297352803     0.06966633575938203
0.8800000000000012        0                        0                        0                        0.5638399237736086
0.8800000000000012        0.02000000000000881      -0.0027108791434018852   -7.425326275885143E-4    0.5637419410982588
0                         0.8999999999999981       0                        0                        0.07064388459976959
0.020000000000001003      0.899999999999998        -0.0043973167531464845   -0.01804616575977698     0.0701224821375266
0.900000000000001         0                        0                        0                        0.563745413450255
0.9000000000000008        0.020000000000009007     -0.0015240336500900323   -5.613639081070212E-4    0.5636697273742565
0                         0.919999999999998        0                        0                        0.07063471994528221
0.020000000000000805      0.9199999999999982       -0.0037243626751599216   -0.01080194421965767     0.07018614909454148
0.9200000000000008        0                        0                        0                        0.5636343232365731
0.9200000000000006        0.02000000000000921      -6.683673910216214E-4    -3.7114748736675004E-4   0.5635818551649824
0                         0.939999999999998        0                        0                        0.07028865143811013
0.020000000000000604      0.939999999999998        -0.002612913892425031    -0.005106340514021094    0.06995689598924323
0.9400000000000006        0                        0                        0                        0.5635243161698024
0.9400000000000005        0.02000000000000941      -1.470601587878058E-4    -1.8574377047845313E-4   0.5634939813215079
0                         0.9599999999999979       0                        0                        0.06979321354077282
0.02000000000000041       0.959999999999998        -0.001279966899728379    -0.0015306601700432665   0.06959479552056196
0.9600000000000004        0                        0                        0                        0.56343516476516
0.9600000000000004        0.02000000000000961      6.815012069741477E-5     -2.6063136000481917E-5   0.5634220218318325
0                         0.9799999999999978       0                        0                        0.06940678161706751
0.020000000000000205      0.9799999999999978       -1.122781438010864E-4    -1.0727962574339184E-4   0.06929093453795752
0.9800000000000002        0                        0                        0                        0.5633886991064009
0.9800000000000002        0.02000000000000981      6.327613051222159E-5     6.33057261593096E-5      0.5633822054830026
0                         1                        0                        0                        0.06929476452143593
0.020000000000000004      1                        0                        0                        0.0691846684554191
1                         0                        0                        0                        0.5633823103597664
1                         0.02000000000001001      0                        0                        0.5633761660257147
0.0400000000000002        0.9799999999999979       -0.0013792046200693537   -0.0010740215539182074   0.06896968084501032
0.04000000000000001       1                        0                        0                        0.06879725993705242
0.9800000000000002        0.04000000000000961      -1.663875189254296E-5    7.615396645526726E-5     0.5633418659035023
1                         0.040000000000009805     0                        0                        0.5633312437574026
0.060000000000000206      0.9799999999999981       -0.0043571251020155235   -0.0020622704521998524   0.06852822125713552
0.06000000000000001       1                        0                        0                        0.06823284895619501
0.9800000000000004        0.06000000000000942      -1.4369506136350211E-4   -9.377391735011689E-5    0.5632692613019228
1                         0.0600000000000096       0                        0                        0.5632455474110848
0.08000000000000021       0.979999999999998        -0.00906232103330798     -0.002992075781909976    0.06803419685771173
0.08000000000000002       1                        0                        0                        0.0676061213335851
0.9800000000000002        0.0800000000000092       -2.7127107207634566E-4   -4.90420560186356E-4     0.5631772578460977
1                         0.0800000000000094       0                        0                        0.5631377799104355
0.10000000000000024       0.979999999999998        -0.015521624914840448    -0.003982529762545035    0.06751143773730581
0.10000000000000003       1                        0                        0                        0.0669413492036587
0.9800000000000004        0.10000000000000901      -3.8654932252436114E-4   -0.0011057735195608052   0.5630743441081565
1                         0.10000000000000919      0                        0                        0.563019534896647
0.12000000000000018       0.9799999999999982       -0.023949410833683207    -0.005148323084604586    0.06697750955828517
0.12000000000000002       1                        0                        0                        0.06624752489501004
0.9800000000000001        0.12000000000000881      -4.895316426107483E-4    -0.0019197753801597306   0.5629654969243626
1                         0.12000000000000899      0                        0                        0.5628963403657669
0.14000000000000018       0.9799999999999981       -0.03469557190574803     -0.006545302514992897    0.06647261202147926
0.14                      1                        0                        0                        0.06556080555131888
0.9800000000000002        0.14000000000000862      -5.852265409791137E-4    -0.0029160005611497393   0.562852941383919
1                         0.14000000000000878      0                        0                        0.5627701596221044
0.1600000000000002        0.9799999999999981       -0.0481304118594065      -0.008161406289386964    0.06608159271028313
0.16000000000000003       1                        0                        0                        0.06497032585629763
0.9800000000000002        0.1600000000000084       -6.796884824419074E-4    -0.004087353631150736    0.562737486611128
1                         0.16000000000000858      0                        0                        0.5626412338713594
0.1800000000000002        0.9799999999999981       -0.06451845148415852     -0.009919150772353445    0.06595413267680457
0.18000000000000002       1                        0                        0                        0.06463988678423205
0.9800000000000001        0.1800000000000082       -7.78127024869899E-4     -0.005436431019313515    0.5626195594131437
1                         0.18000000000000838      0                        0                        0.562509431813192
0.20000000000000018       0.9799999999999982       -0.08389169914658992     -0.011674244261353188    0.06632804606301636
0.2                       1                        0                        0                        0.06483225171095626
0.9800000000000004        0.200000000000008        -8.84135455425081E-4     -0.006973460058538273    0.5624999589616071
1                         0.20000000000000817      0                        0                        0.5623751428640218
0.2200000000000002        0.9799999999999981       -0.1059196302347902      -0.013209909383082195    0.06755571443524805
0.22000000000000003       1                        0                        0                        0.0659369523678738
0.9800000000000002        0.2200000000000078       -9.995447507575449E-4    -0.008713347454323913    0.5623803495512053
1                         0.22000000000000797      0                        0                        0.5622398195078642
0.2400000000000002        0.9799999999999984       -0.12977769797965302     -0.014232736517773414    0.07012955655302602
0.24000000000000005       1                        0                        0                        0.06849801364818452
0.9800000000000003        0.24000000000000765      -0.0011245893323269481   -0.010672693623226192    0.5622635639004977
1                         0.24000000000000776      0                        0                        0.5621062803785777
0.26000000000000023       0.9799999999999984       -0.15401500082180572     -0.014364093158293003    0.07470061400725503
0.26000000000000006       1                        0                        0                        0.07323587720652791